# vtk DataFile Version 1.0
Unstructured Grid Example
ASCII

DATASET UNSTRUCTURED_GRID
POINTS 1263 float
251 168 0
159 143 0
182 108 0
133 267 0
190 242 0
132 195 0
164 314 0
176 331 0
0 461 0
0 385 0
43 486 0
316 319 0
346 405 0
442 289 0
214 304 0
227 256 0
221 255 0
304 244 0
231 170 0
99 1 0
60 177 0
114 180 0
193 134 0
196 167 0
200 18 0
203 114 0
185 247 0
195 236 0
178 240 0
152 233 0
152 237 0
130 190 0
129 249 0
134 270 0
130 253 0
132 256 0
144 285 0
110 486 0
129 486 0
34 486 0
171 431 0
203 450 0
144 330 0
148 276 0
144 272 0
149 251 0
193 268 0
165 259 0
218 319 0
235 235 0
223 333 0
214 336 0
208 382 0
252 396 0
237 461 0
328 455 0
261 486 0
329 449 0
343 387 0
357 326 0
276 295 0
305 254 0
442 236 0
269 186 0
442 118 0
267 183 0
255 120 0
209 196 0
234 177 0
206 232 0
346 45 0
285 98 0
323 1 0
357 9 0
357 14 0
374 22 0
397 1 0
397 98 0
84 1 0
11 1 0
49 1 0
5 1 0
0 118 0
0 136 0
0 147 0
101 138 0
105 142 0
117 136 0
107 128 0
165 124 0
146 1 0
138 1 0
197 49 0
182 14 0
196 25 0
199 6 0
201 1 0
206 6 0
208 1 0
199 60 0
206 137 0
217 90 0
197 54 0
190 132 0
182 120 0
184 135 0
176 139 0
179 172 0
159 183 0
176 172 0
188 171 0
189 175 0
191 172 0
200 199 0
188 226 0
195 224 0
191 226 0
188 205 0
187 241 0
173 241 0
160 240 0
171 231 0
152 221 0
151 241 0
126 231 0
152 218 0
153 214 0
125 159 0
122 160 0
0 171 0
112 150 0
108 149 0
122 156 0
43 173 0
0 175 0
99 178 0
81 183 0
141 274 0
134 276 0
0 243 0
143 268 0
146 264 0
149 263 0
152 244 0
138 296 0
151 296 0
136 285 0
136 288 0
135 304 0
135 291 0
134 309 0
0 412 0
135 318 0
0 449 0
0 479 0
88 486 0
71 486 0
16 486 0
149 392 0
155 400 0
153 398 0
147 486 0
148 385 0
143 359 0
141 327 0
143 353 0
167 331 0
171 331 0
192 343 0
161 411 0
180 437 0
164 486 0
166 422 0
204 362 0
198 363 0
200 369 0
207 350 0
210 348 0
195 342 0
200 329 0
193 331 0
188 322 0
198 321 0
181 319 0
175 325 0
175 321 0
169 329 0
165 317 0
205 268 0
199 247 0
201 282 0
157 306 0
205 278 0
206 288 0
208 261 0
212 308 0
224 316 0
222 320 0
226 318 0
262 305 0
273 310 0
277 309 0
283 304 0
316 374 0
320 341 0
317 330 0
298 386 0
285 388 0
276 389 0
223 393 0
246 464 0
268 394 0
256 468 0
287 469 0
279 470 0
268 486 0
227 486 0
296 467 0
292 486 0
306 486 0
299 467 0
302 464 0
320 462 0
313 460 0
319 451 0
350 427 0
345 426 0
329 444 0
322 449 0
324 454 0
362 486 0
322 486 0
391 486 0
427 486 0
371 486 0
404 486 0
384 486 0
442 485 0
442 464 0
401 486 0
353 357 0
354 363 0
350 367 0
347 380 0
345 391 0
339 376 0
345 383 0
357 351 0
356 354 0
322 350 0
321 345 0
360 324 0
360 328 0
360 350 0
361 339 0
316 295 0
442 303 0
315 289 0
311 279 0
312 253 0
312 246 0
315 246 0
281 209 0
277 208 0
296 211 0
286 214 0
307 260 0
310 271 0
288 299 0
272 296 0
236 246 0
250 300 0
231 261 0
229 243 0
218 291 0
220 246 0
218 303 0
235 218 0
234 223 0
230 236 0
239 229 0
240 242 0
244 221 0
241 227 0
248 237 0
258 175 0
285 202 0
263 179 0
257 203 0
252 196 0
240 177 0
233 207 0
223 96 0
220 140 0
224 142 0
227 98 0
230 144 0
269 116 0
282 103 0
275 111 0
435 1 0
341 1 0
381 1 0
350 30 0
301 83 0
412 146 0
291 206 0
442 81 0
442 138 0
442 112 0
442 158 0
442 61 0
442 54 0
442 44 0
439 1 0
21 1 0
16 1 0
2 1 0
28 1 0
37 1 0
59 1 0
73 1 0
0 20 0
0 26 0
0 6 0
0 35 0
0 3 0
0 15 0
0 10 0
0 87 0
0 43 0
0 103 0
0 128 0
0 155 0
0 163 0
0 159 0
109 142 0
106 146 0
108 138 0
106 134 0
110 130 0
102 94 0
0 68 0
0 58 0
116 141 0
121 136 0
116 153 0
120 153 0
125 163 0
130 163 0
134 163 0
143 163 0
139 163 0
143 159 0
146 155 0
149 149 0
151 146 0
156 144 0
158 140 0
141 131 0
148 128 0
136 131 0
131 132 0
110 134 0
114 132 0
127 134 0
129 1 0
120 1 0
110 1 0
152 127 0
155 1 0
160 125 0
164 1 0
156 126 0
176 1 0
171 1 0
182 1 0
179 1 0
183 6 0
182 10 0
184 21 0
189 28 0
193 35 0
193 28 0
186 26 0
189 1 0
185 2 0
192 1 0
202 15 0
197 1 0
204 10 0
204 1 0
211 1 0
206 3 0
216 1 0
206 90 0
207 87 0
213 88 0
208 95 0
205 83 0
204 74 0
200 67 0
197 22 0
203 134 0
198 132 0
198 115 0
206 112 0
209 99 0
210 109 0
210 102 0
212 165 0
213 135 0
217 138 0
210 137 0
207 161 0
202 162 0
199 164 0
200 135 0
186 164 0
183 164 0
195 164 0
187 133 0
186 118 0
189 117 0
193 116 0
177 121 0
179 111 0
169 123 0
173 122 0
181 137 0
172 140 0
164 142 0
169 142 0
173 173 0
181 170 0
181 174 0
181 206 0
179 209 0
175 216 0
176 211 0
189 184 0
185 206 0
187 187 0
189 180 0
186 177 0
184 175 0
186 173 0
192 166 0
191 169 0
190 188 0
194 190 0
194 183 0
194 186 0
217 166 0
214 195 0
216 217 0
218 197 0
213 218 0
210 217 0
204 197 0
196 201 0
193 202 0
193 241 0
187 229 0
191 239 0
197 222 0
200 221 0
203 221 0
206 219 0
205 245 0
215 248 0
217 246 0
203 248 0
194 248 0
188 246 0
190 248 0
185 243 0
182 244 0
180 246 0
181 240 0
177 236 0
179 232 0
181 230 0
184 229 0
171 235 0
172 227 0
172 221 0
171 238 0
175 244 0
168 244 0
170 246 0
174 247 0
162 248 0
165 244 0
162 245 0
150 248 0
149 245 0
128 245 0
127 241 0
129 217 0
128 237 0
128 221 0
130 213 0
146 223 0
149 222 0
151 229 0
151 225 0
153 200 0
152 204 0
153 194 0
157 187 0
160 179 0
168 175 0
164 177 0
133 166 0
140 166 0
130 166 0
137 167 0
133 199 0
132 204 0
152 209 0
131 209 0
103 179 0
64 179 0
107 178 0
94 177 0
51 173 0
56 176 0
47 172 0
6 171 0
0 167 0
15 171 0
10 171 0
20 172 0
28 175 0
35 175 0
0 180 0
73 182 0
69 180 0
77 183 0
85 182 0
126 184 0
119 181 0
90 180 0
0 210 0
0 217 0
0 202 0
126 227 0
0 196 0
0 188 0
0 184 0
0 225 0
134 273 0
0 259 0
132 261 0
0 276 0
135 280 0
0 293 0
133 298 0
135 294 0
146 294 0
147 281 0
146 281 0
145 277 0
147 271 0
139 271 0
148 266 0
148 259 0
148 255 0
149 273 0
162 251 0
165 253 0
165 256 0
152 282 0
156 296 0
153 294 0
152 291 0
151 279 0
150 284 0
150 288 0
148 279 0
145 316 0
144 312 0
153 303 0
155 299 0
156 303 0
161 311 0
159 308 0
164 324 0
167 322 0
166 327 0
146 321 0
145 326 0
143 324 0
143 369 0
144 344 0
140 332 0
143 337 0
142 364 0
141 322 0
140 317 0
141 313 0
139 299 0
138 302 0
132 302 0
134 312 0
0 313 0
135 315 0
0 355 0
0 337 0
138 320 0
0 391 0
0 396 0
0 403 0
0 416 0
0 408 0
0 378 0
0 370 0
0 455 0
0 471 0
0 466 0
0 475 0
0 424 0
0 438 0
0 431 0
21 486 0
0 482 0
3 486 0
25 486 0
11 486 0
0 486 0
8 486 0
59 486 0
40 486 0
62 486 0
53 486 0
56 486 0
37 486 0
30 486 0
48 486 0
80 486 0
91 486 0
113 486 0
125 486 0
120 486 0
95 486 0
75 486 0
160 486 0
150 486 0
156 486 0
139 486 0
153 486 0
136 486 0
133 486 0
142 486 0
107 486 0
163 418 0
116 486 0
103 486 0
98 486 0
85 486 0
67 486 0
143 379 0
142 373 0
149 388 0
146 382 0
151 396 0
158 404 0
161 414 0
161 408 0
175 335 0
173 333 0
181 333 0
183 330 0
189 331 0
196 330 0
186 330 0
185 343 0
189 341 0
183 338 0
181 340 0
172 337 0
178 335 0
178 340 0
176 435 0
173 434 0
168 426 0
177 486 0
168 486 0
180 486 0
173 486 0
185 486 0
190 486 0
195 486 0
194 445 0
190 443 0
185 440 0
196 370 0
198 366 0
208 451 0
210 385 0
198 448 0
210 486 0
206 486 0
201 486 0
198 486 0
218 393 0
213 453 0
217 486 0
214 486 0
216 389 0
213 388 0
214 385 0
212 382 0
205 378 0
207 360 0
207 355 0
203 375 0
201 363 0
199 375 0
199 372 0
208 340 0
199 342 0
202 343 0
204 341 0
210 338 0
215 347 0
216 333 0
218 346 0
216 317 0
214 319 0
215 308 0
215 301 0
213 298 0
215 296 0
218 297 0
209 303 0
209 294 0
210 306 0
209 310 0
208 313 0
207 327 0
210 324 0
212 321 0
192 322 0
204 327 0
178 328 0
178 325 0
169 324 0
171 326 0
174 329 0
185 321 0
184 318 0
178 320 0
170 319 0
195 322 0
201 320 0
205 318 0
207 316 0
201 270 0
202 286 0
200 267 0
198 280 0
197 268 0
189 266 0
180 264 0
171 249 0
168 260 0
177 263 0
173 262 0
179 249 0
182 249 0
205 256 0
185 264 0
207 254 0
205 252 0
207 250 0
205 259 0
206 264 0
207 280 0
207 292 0
211 289 0
215 290 0
212 293 0
215 293 0
215 287 0
213 285 0
217 250 0
211 283 0
243 299 0
220 299 0
224 301 0
244 302 0
220 306 0
224 305 0
224 309 0
253 305 0
248 306 0
257 306 0
245 305 0
251 303 0
253 299 0
248 302 0
262 301 0
258 298 0
268 301 0
273 301 0
278 299 0
281 299 0
288 302 0
280 308 0
284 308 0
287 305 0
279 302 0
264 303 0
264 309 0
260 303 0
260 308 0
291 325 0
284 323 0
287 321 0
291 321 0
293 318 0
296 324 0
296 319 0
282 325 0
288 327 0
284 329 0
293 386 0
281 333 0
279 325 0
277 334 0
276 325 0
273 327 0
269 333 0
272 334 0
269 326 0
266 325 0
270 310 0
267 309 0
222 313 0
225 313 0
263 327 0
265 330 0
220 332 0
221 342 0
221 339 0
221 336 0
226 394 0
222 390 0
229 393 0
237 394 0
240 394 0
252 393 0
258 395 0
255 396 0
258 398 0
249 396 0
245 396 0
242 396 0
219 455 0
232 395 0
230 460 0
224 457 0
237 486 0
233 486 0
230 486 0
224 486 0
220 486 0
251 486 0
258 486 0
255 486 0
240 486 0
245 486 0
251 466 0
248 486 0
242 462 0
263 470 0
266 470 0
275 471 0
277 486 0
264 486 0
274 486 0
271 486 0
295 486 0
300 486 0
280 486 0
283 486 0
287 486 0
282 471 0
296 470 0
300 470 0
293 466 0
299 464 0
290 467 0
284 469 0
270 468 0
273 468 0
260 468 0
268 390 0
265 394 0
261 395 0
270 392 0
273 390 0
278 391 0
290 387 0
281 389 0
335 438 0
335 445 0
332 444 0
336 434 0
337 443 0
341 434 0
339 439 0
333 447 0
340 450 0
332 451 0
327 452 0
325 448 0
322 457 0
315 456 0
306 468 0
311 463 0
309 466 0
303 470 0
303 486 0
314 486 0
309 486 0
337 486 0
330 486 0
326 486 0
341 486 0
334 486 0
318 486 0
322 460 0
325 458 0
379 486 0
388 486 0
395 486 0
375 486 0
368 486 0
347 486 0
352 486 0
423 486 0
430 486 0
440 486 0
435 486 0
419 486 0
412 486 0
409 486 0
416 486 0
398 486 0
442 480 0
442 476 0
365 486 0
359 486 0
356 486 0
344 486 0
344 436 0
343 442 0
343 439 0
345 432 0
442 437 0
442 470 0
442 449 0
442 458 0
442 400 0
442 422 0
442 412 0
442 392 0
442 384 0
442 371 0
354 377 0
347 397 0
351 378 0
349 371 0
354 373 0
348 408 0
347 411 0
348 419 0
348 422 0
346 400 0
347 416 0
345 394 0
345 423 0
342 426 0
342 430 0
345 429 0
312 377 0
302 384 0
305 383 0
310 380 0
315 378 0
317 371 0
342 384 0
342 377 0
351 362 0
353 368 0
323 353 0
322 356 0
322 361 0
320 370 0
320 366 0
316 313 0
315 327 0
315 323 0
317 308 0
317 337 0
317 300 0
352 307 0
349 298 0
359 320 0
356 313 0
361 345 0
357 360 0
360 363 0
357 365 0
356 370 0
361 354 0
361 359 0
442 358 0
[...]
CELL_DATA 2221
COLOR_SCALARS ColorSpace 1
0.405229
0.278431
0.254902
0.211765
0.294118
0.341176
0.29281
0.305882
0.481046
0.271895
0.305882
0.308497
0.317647
0.28366
0.457516
0.496732
0.339869
0.328105
0.284967
0.31634
0.308497
0.329412
0.254902
0.435294
0.271895
0.334641
0.341176
0.266667
0.286275
0.337255
0.305882
0.169935
0.298039
0.481046
0.308497
0.324183
0.488889
0.296732
0.423529
0.308497
0.294118
0.487582
0.401307
0.281046
0.311111
0.304575
0.381699
0.30719
0.294118
0.368627
0.290196
0.320261
0.317647
0.39085
0.354248
0.324183
0.524183
0.478431
0.318954
0.363399
0.366013
0.454902
0.301961
0.368627
0.360784
0.375163
0.381699
0.418301
0.286275
0.426144
0.380392
0.346405
0.313725
0.381699
0.275817
0.32549
0.337255
0.309804
0.334641
0.324183
0.298039
0.309804
0.356863
0.320261
0.304575
0.308497
0.315033
0.339869
0.308497
0.318954
0.290196
0.320261
0.308497
0.405229
0.301961
0.313725
0.32549
0.411765
0.273203
0.313725
0.487582
0.448366
0.202614
0.214379
0.173856
0.239216
0.290196
0.305882
0.356863
0.381699
0.27451
0.669281
0.240523
0.315033
0.614379
0.303268
0.392157
0.279739
0.377778
0.401307
0.300654
0.339869
0.339869
0.392157
0.266667
0.249673
0.298039
0.428758
0.194771
0.436601
0.183007
0.269281
0.577778
0.601307
0.512418
0.439216
0.435294
0.414379
0.312418
0.169935
0.169935
0.169935
0.101961
0.403922
0.252288
0.445752
0.308497
0.328105
0.339869
0.499346
0.142484
0.32549
0.30719
0.347712
0.436601
0.28366
0.142484
0.413072
0.211765
0.249673
0.150327
0.355556
0.118954
0.150327
0.499346
0.183007
0.294118
0.296732
0.287582
0.247059
0.317647
0.226144
0.338562
0.426144
0.342484
0.362092
0.440523
0.318954
0.320261
0.350327
0.350327
0.317647
0.304575
0.379085
0.308497
0.328105
0.305882
0.286275
0.330719
0.303268
0.315033
0.305882
0.300654
0.312418
0.40915
0.355556
0.317647
0.32549
0.265359
0.456209
0.343791
0.333333
0.428758
0.324183
0.407843
0.304575
0.256209
0.324183
0.278431
0.338562
0.320261
0.313725
0.312418
0.286275
0.362092
0.479739
0.498039
0.342484
0.318954
0.410458
0.264052
0.363399
0.305882
0.312418
0.311111
0.371242
0.300654
0.515033
0.351634
0.444444
0.308497
0.383007
0.504575
0.239216
0.498039
0.355556
0.290196
0.552941
0.359477
0.32549
0.315033
0.389542
0.360784
0.447059
0.296732
0.328105
0.356863
0.313725
0.303268
0.31634
0.320261
0.309804
0.317647
0.419608
0.315033
0.329412
0.312418
0.401307
0.35817
0.350327
0.334641
0.380392
0.333333
0.35817
0.431373
0.338562
0.458824
0.416993
0.424837
0.416993
0.39085
0.315033
0.334641
0.360784
0.416993
0.40915
0.377778
0.393464
0.31634
0.423529
0.322876
0.318954
0.372549
0.445752
0.338562
0.279739
0.29281
0.279739
0.303268
0.294118
0.309804
0.315033
0.360784
0.428758
0.44183
0.326797
0.381699
0.315033
0.301961
0.31634
0.309804
0.303268
0.35817
0.304575
0.301961
0.326797
0.345098
0.34902
0.328105
0.295425
0.30719
0.350327
0.342484
0.28366
0.330719
0.288889
0.359477
0.304575
0.345098
0.324183
0.311111
0.275817
0.321569
0.303268
0.309804
0.304575
0.300654
0.301961
0.277124
0.301961
0.294118
0.303268
0.322876
0.301961
0.303268
0.311111
0.322876
0.309804
0.337255
0.313725
0.312418
0.312418
0.309804
0.338562
0.31634
0.303268
0.321569
0.299346
0.330719
0.299346
0.27451
0.362092
0.341176
0.383007
0.308497
0.265359
0.34902
0.347712
0.266667
0.326797
0.271895
0.356863
0.337255
0.29281
0.333333
0.295425
0.315033
0.29281
0.328105
0.332026
0.355556
0.648366
0.524183
0.303268
0.308497
0.333333
0.521569
0.343791
0.411765
0.596078
0.368627
0.626144
0.437908
0.341176
0.346405
0.330719
0.337255
0.295425
0.475817
0.35817
0.407843
0.529412
0.362092
0.488889
0.216993
0.269281
0.354248
0.305882
0.322876
0.260131
0.27451
0.271895
0.287582
0.312418
0.333333
0.286275
0.644444
0.482353
0.611765
0.837908
0.366013
0.844444
0.616993
0.837908
0.845752
0.843137
0.286275
0.245752
0.299346
0.231373
0.223529
0.25098
0.318954
0.690196
0.305882
0.320261
0.338562
0.273203
0.324183
0.324183
0.288889
0.279739
0.210458
0.315033
0.300654
0.32549
0.257516
0.342484
0.313725
0.423529
0.230065
0.183007
0.694118
0.267974
0.254902
0.479739
0.321569
0.313725
0.207843
0.308497
0.330719
0.352941
0.351634
0.347712
0.342484
0.31634
0.286275
0.298039
0.15817
0.366013
0.304575
0.243137
0.335948
0.299346
0.326797
0.392157
0.25098
0.334641
0.398693
0.247059
0.313725
0.320261
0.304575
0.339869
0.252288
0.318954
0.322876
0.34902
0.317647
0.351634
0.313725
0.308497
0.303268
0.305882
0.320261
0.299346
0.308497
0.308497
0.303268
0.29281
0.315033
0.355556
0.317647
0.320261
0.334641
0.262745
0.287582
0.309804
0.423529
0.324183
0.359477
0.30719
0.30719
0.309804
0.28366
0.218301
0.235294
0.339869
0.252288
0.352941
0.282353
0.28366
0.329412
0.219608
0.236601
0.299346
0.228758
0.304575
0.363399
0.301961
0.257516
0.31634
0.30719
0.288889
0.342484
0.338562
0.332026
0.286275
0.30719
0.445752
0.315033
0.460131
0.24183
0.48366
0.350327
0.703268
0.189542
0.401307
0.223529
0.322876
0.29281
0.249673
0.772549
0.718954
0.207843
0.383007
0.654902
0.701961
0.675817
0.853595
0.647059
0.101961
0.101961
0.101961
0.101961
0.101961
0.101961
0.101961
0.101961
0.101961
0.101961
0.101961
0.100654
0.101961
0.101961
0.169935
0.169935
0.24183
0.180392
0.185621
0.231373
0.386928
0.317647
0.32549
0.321569
0.318954
0.322876
0.320261
0.313725
0.313725
0.317647
0.320261
0.311111
0.169935
0.169935
0.101961
0.318954
0.337255
0.381699
0.299346
0.30719
0.362092
0.31634
0.324183
0.397386
0.318954
0.312418
0.281046
0.312418
0.321569
0.301961
0.313725
0.288889
0.309804
0.30719
0.305882
0.317647
0.329412
0.368627
0.318954
0.355556
0.324183
0.320261
0.286275
0.393464
0.30719
0.341176
0.321569
0.304575
0.352941
0.36732
0.317647
0.335948
0.334641
0.318954
0.342484
0.377778
0.345098
0.375163
0.368627
0.169935
0.169935
0.169935
0.169935
0.296732
0.30719
0.171242
0.269281
0.366013
0.188235
0.25098
0.337255
0.11634
0.118954
0.133333
0.126797
0.168627
0.202614
0.133333
0.202614
0.405229
0.247059
0.112418
0.366013
0.330719
0.260131
0.252288
0.249673
0.287582
0.210458
0.345098
0.254902
0.264052
0.311111
0.430065
0.150327
0.373856
0.413072
0.265359
0.397386
0.385621
0.465359
0.254902
0.435294
0.515033
0.177778
0.338562
0.32549
0.337255
0.282353
0.321569
0.308497
0.304575
0.405229
0.337255
0.290196
0.237908
0.32549
0.261438
0.277124
0.393464
0.372549
0.301961
0.427451
0.312418
0.4
0.360784
0.433987
0.337255
0.460131
0.311111
0.368627
0.315033
0.326797
0.271895
0.290196
0.333333
0.271895
0.299346
0.279739
0.28366
0.277124
0.296732
0.281046
0.329412
0.30719
0.330719
0.288889
0.343791
0.309804
0.299346
0.281046
0.282353
0.320261
0.295425
0.296732
0.305882
0.286275
0.440523
0.318954
0.34902
0.291503
0.363399
0.321569
0.413072
0.350327
0.431373
0.495425
0.305882
0.333333
0.34902
0.396078
0.36732
0.373856
0.309804
0.305882
0.298039
0.335948
0.305882
0.30719
0.315033
0.309804
0.317647
0.332026
0.312418
0.332026
0.333333
0.324183
0.333333
0.317647
0.277124
0.322876
0.322876
0.318954
0.311111
0.301961
0.294118
0.315033
0.282353
0.305882
0.326797
0.342484
0.32549
0.309804
0.318954
0.305882
0.334641
0.334641
0.317647
0.339869
0.294118
0.287582
0.299346
0.300654
0.315033
0.32549
0.309804
0.313725
0.324183
0.308497
0.291503
0.305882
0.330719
0.352941
0.322876
0.284967
0.30719
0.295425
0.299346
0.324183
0.384314
0.286275
0.320261
0.311111
0.303268
0.320261
0.305882
0.30719
0.315033
0.32549
0.338562
0.305882
0.334641
0.328105
0.343791
0.326797
0.267974
0.415686
0.31634
0.30719
0.39085
0.321569
0.39085
0.309804
0.317647
0.321569
0.330719
0.30719
0.320261
0.317647
0.288889
0.315033
0.296732
0.301961
0.329412
0.334641
0.300654
0.332026
0.322876
0.228758
0.318954
0.339869
0.311111
0.315033
0.288889
0.189542
0.273203
0.236601
0.309804
0.299346
0.330719
0.406536
0.355556
0.384314
0.281046
0.330719
0.299346
0.32549
0.322876
0.333333
0.291503
0.342484
0.295425
0.342484
0.309804
0.360784
0.322876
0.339869
0.329412
0.318954
0.315033
0.308497
0.290196
0.305882
0.309804
0.318954
0.333333
0.312418
0.305882
0.301961
0.34902
0.452288
0.393464
0.457516
0.401307
0.308497
0.35817
0.298039
0.413072
0.426144
0.277124
0.291503
0.317647
0.369935
0.30719
0.303268
0.301961
0.313725
0.294118
0.312418
0.291503
0.294118
0.290196
0.28366
0.430065
0.318954
0.371242
0.341176
0.303268
0.334641
0.321569
0.309804
0.335948
0.295425
0.355556
0.308497
0.305882
0.295425
0.341176
0.308497
0.416993
0.304575
0.435294
0.376471
0.486275
0.341176
0.290196
0.324183
0.469281
0.388235
0.484967
0.402614
0.44183
0.495425
0.47451
0.453595
0.308497
0.424837
0.518954
0.180392
0.509804
0.452288
0.385621
0.233987
0.324183
0.332026
0.2
0.202614
0.231373
0.48366
0.300654
0.572549
0.315033
0.469281
0.32549
0.537255
0.393464
0.556863
0.546405
0.568627
0.328105
0.48366
0.479739
0.440523
0.460131
0.513725
0.453595
0.39085
0.453595
0.431373
0.439216
0.49281
0.564706
0.543791
0.556863
0.487582
0.381699
0.473203
0.487582
0.55817
0.55817
0.333333
0.4
0.517647
0.334641
0.436601
0.50719
0.50719
0.332026
0.371242
0.445752
0.498039
0.342484
0.339869
0.317647
0.308497
0.299346
0.305882
0.313725
0.328105
0.315033
0.326797
0.315033
0.315033
0.317647
0.324183
0.304575
0.31634
0.311111
0.333333
0.312418
0.296732
0.32549
0.329412
0.311111
0.312418
0.326797
0.347712
0.27451
0.359477
0.321569
0.321569
0.299346
0.313725
0.321569
0.298039
0.300654
0.295425
0.308497
0.326797
0.317647
0.309804
0.313725
0.308497
0.313725
0.30719
0.315033
0.363399
0.303268
0.304575
0.312418
0.304575
0.301961
0.309804
0.298039
0.309804
0.301961
0.355556
0.301961
0.354248
0.309804
0.339869
0.29281
0.317647
0.308497
0.300654
0.294118
0.346405
0.342484
0.335948
0.328105
0.334641
0.354248
0.4
0.311111
0.444444
0.380392
0.448366
0.383007
0.406536
0.341176
0.359477
0.381699
0.335948
0.366013
0.329412
0.334641
0.407843
0.332026
0.309804
0.301961
0.309804
0.362092
0.526797
0.393464
0.505882
0.475817
0.50719
0.394771
0.467974
0.501961
0.503268
0.491503
0.389542
0.384314
0.430065
0.405229
0.461438
0.460131
0.414379
0.461438
0.443137
0.487582
0.4
0.385621
0.396078
0.394771
0.420915
0.423529
0.411765
0.379085
0.403922
0.385621
0.410458
0.388235
0.397386
0.397386
0.403922
0.416993
0.416993
0.410458
0.407843
0.411765
0.407843
0.393464
0.407843
0.375163
0.43268
0.413072
0.428758
0.415686
0.418301
0.416993
0.437908
0.411765
0.413072
0.406536
0.381699
0.40915
0.334641
0.385621
0.383007
0.422222
0.419608
0.366013
0.423529
0.423529
0.392157
0.413072
0.394771
0.398693
0.406536
0.466667
0.356863
0.422222
0.443137
0.360784
0.343791
0.396078
0.360784
0.419608
0.386928
0.36732
0.388235
0.435294
0.401307
0.308497
0.347712
0.311111
0.326797
0.318954
0.282353
0.296732
0.31634
0.315033
0.332026
0.338562
0.339869
0.333333
0.322876
0.324183
0.324183
0.278431
0.278431
0.372549
0.284967
0.311111
0.299346
0.269281
0.28366
0.296732
0.286275
0.308497
0.300654
0.287582
0.266667
0.335948
0.394771
0.360784
0.40915
0.351634
0.379085
0.445752
0.406536
0.44183
0.44183
0.403922
0.461438
0.482353
0.385621
0.47451
0.381699
0.427451
0.32549
0.443137
0.335948
0.305882
0.304575
0.311111
0.373856
0.305882
0.308497
0.443137
0.456209
0.503268
0.452288
0.445752
0.495425
0.30719
0.34902
0.324183
0.457516
0.50719
0.457516
0.496732
0.305882
0.304575
0.299346
0.313725
0.360784
0.30719
0.315033
0.309804
0.305882
0.308497
0.30719
0.299346
0.296732
0.312418
0.311111
0.309804
0.313725
0.308497
0.308497
0.338562
0.309804
0.303268
0.315033
0.277124
0.324183
0.286275
0.294118
0.267974
0.300654
0.284967
0.342484
0.31634
0.366013
0.313725
0.337255
0.31634
0.299346
0.309804
0.308497
0.304575
0.31634
0.298039
0.317647
0.313725
0.315033
0.324183
0.326797
0.322876
0.318954
0.320261
0.30719
0.309804
0.313725
0.326797
0.313725
0.324183
0.330719
0.30719
0.320261
0.304575
0.311111
0.315033
0.341176
0.275817
0.329412
0.320261
0.330719
0.313725
0.347712
0.28366
0.315033
0.304575
0.330719
0.343791
0.29281
0.288889
0.324183
0.32549
0.298039
0.337255
0.315033
0.32549
0.286275
0.281046
0.287582
0.303268
0.284967
0.277124
0.291503
0.296732
0.309804
0.284967
0.318954
0.296732
0.339869
0.321569
0.322876
0.330719
0.326797
0.296732
0.286275
0.324183
0.295425
0.308497
0.326797
0.321569
0.328105
0.334641
0.315033
0.30719
0.29281
0.324183
0.304575
0.287582
0.343791
0.277124
0.338562
0.28366
0.326797
0.284967
0.313725
0.332026
0.311111
0.329412
0.304575
0.320261
0.326797
0.318954
0.295425
0.312418
0.304575
0.298039
0.304575
0.308497
0.308497
0.299346
0.300654
0.291503
0.312418
0.270588
0.338562
0.318954
0.315033
0.304575
0.318954
0.322876
0.322876
0.315033
0.32549
0.309804
0.31634
0.329412
0.303268
0.322876
0.322876
0.321569
0.311111
0.278431
0.304575
0.313725
0.303268
0.311111
0.304575
0.311111
0.30719
0.303268
0.311111
0.299346
0.305882
0.304575
0.308497
0.298039
0.305882
0.298039
0.324183
0.311111
0.313725
0.328105
0.321569
0.308497
0.326797
0.313725
0.304575
0.304575
0.311111
0.309804
0.31634
0.326797
0.299346
0.265359
0.401307
0.36732
0.337255
0.299346
0.299346
0.294118
0.254902
0.311111
0.286275
0.324183
0.313725
0.354248
0.312418
0.301961
0.322876
0.301961
0.277124
0.25098
0.341176
0.329412
0.32549
0.343791
0.300654
0.299346
0.320261
0.317647
0.338562
0.313725
0.291503
0.32549
0.338562
0.352941
0.322876
0.333333
0.317647
0.321569
0.35817
0.32549
0.317647
0.322876
0.32549
0.339869
0.321569
0.355556
0.275817
0.355556
0.352941
0.324183
0.315033
0.326797
0.260131
0.338562
0.342484
0.339869
0.287582
0.322876
0.30719
0.31634
0.329412
0.326797
0.338562
0.328105
0.303268
0.317647
0.321569
0.311111
0.315033
0.360784
0.328105
0.347712
0.294118
0.309804
0.317647
0.308497
0.322876
0.324183
0.347712
0.326797
0.273203
0.313725
0.34902
0.35817
0.269281
0.282353
0.23268
0.245752
0.30719
0.309804
0.313725
0.341176
0.338562
0.30719
0.317647
0.337255
0.345098
0.45098
0.354248
0.311111
0.335948
0.290196
0.303268
0.286275
0.291503
0.29281
0.315033
0.288889
0.301961
0.29281
0.335948
0.301961
0.355556
0.386928
0.388235
0.308497
0.528105
0.343791
0.52549
0.377778
0.505882
0.532026
0.466667
0.511111
0.559477
0.526797
0.575163
0.515033
0.445752
0.334641
0.467974
0.534641
0.543791
0.347712
0.342484
0.623529
0.541176
0.428758
0.513725
0.377778
0.366013
0.586928
0.615686
0.584314
0.620915
0.597386
0.469281
0.48366
0.577778
0.596078
0.473203
0.577778
0.309804
0.589542
0.287582
0.470588
0.371242
0.411765
0.356863
0.279739
0.345098
0.313725
0.381699
0.337255
0.311111
0.360784
0.346405
0.313725
0.324183
0.351634
0.356863
0.315033
0.282353
0.334641
0.334641
0.303268
0.335948
0.313725
0.334641
0.312418
0.300654
0.369935
0.304575
0.294118
0.304575
0.298039
0.299346
0.269281
0.345098
0.321569
0.266667
0.28366
0.281046
0.338562
0.205229
0.332026
0.203922
0.656209
0.273203
0.270588
0.342484
0.339869
0.309804
0.372549
0.290196
0.360784
0.32549
0.30719
0.343791
0.337255
0.35817
0.313725
0.467974
0.304575
0.311111
0.343791
0.326797
0.359477
0.611765
0.311111
0.610458
0.6
0.611765
0.495425
0.644444
0.661438
0.64183
0.515033
0.495425
0.636601
0.377778
0.362092
0.644444
0.35817
0.660131
0.618301
0.610458
0.653595
0.499346
0.67451
0.845752
0.844444
0.848366
0.847059
0.845752
0.618301
0.847059
0.844444
0.844444
0.845752
0.682353
0.678431
0.686275
0.678431
0.681046
0.664052
0.667974
0.269281
0.43268
0.333333
0.222222
0.328105
0.30719
0.192157
0.198693
0.84183
0.845752
0.844444
0.847059
0.848366
0.249673
0.620915
0.619608
0.696732
0.512418
0.675817
0.312418
0.308497
0.30719
0.534641
0.261438
0.282353
0.249673
0.249673
0.337255
0.313725
0.253595
0.466667
0.288889
0.186928
0.305882
0.304575
0.264052
0.291503
0.214379
0.294118
0.24183
0.261438
0.228758
0.237908
0.220915
0.180392
0.180392
0.303268
0.215686
0.207843
0.211765
0.239216
0.262745
0.308497
0.303268
0.220915
0.308497
0.249673
0.304575
0.303268
0.236601
0.294118
0.335948
0.330719
0.335948
0.299346
0.312418
0.275817
0.254902
0.245752
0.261438
0.258824
0.329412
0.343791
0.290196
0.351634
0.342484
0.338562
0.315033
0.338562
0.347712
0.351634
0.281046
0.332026
0.345098
0.338562
0.36732
0.342484
0.286275
0.337255
0.326797
0.328105
0.218301
0.335948
0.248366
0.419608
0.262745
0.433987
0.660131
0.248366
0.623529
0.194771
0.464052
0.437908
0.345098
0.28366
0.679739
0.281046
0.309804
0.284967
0.309804
0.313725
0.206536
0.318954
0.465359
0.49281
0.65098
0.670588
0.648366
0.484967
0.253595
0.278431
0.679739
0.281046
0.640523
0.286275
0.44183
0.661438
0.278431
0.526797
0.273203
0.296732
0.28366
0.265359
0.266667
0.352941
0.320261
0.371242
0.321569
0.305882
0.29281
0.313725
0.305882
0.342484
0.654902
0.282353
0.299346
0.291503
0.338562
0.381699
0.457516
0.596078
0.726797
0.71634
0.794771
0.713725
0.713725
0.718954
0.436601
0.317647
0.380392
0.311111
0.324183
0.343791
0.376471
0.656209
0.313725
0.308497
0.29281
0.299346
0.364706
0.298039
0.239216
0.389542
0.403922
0.288889
0.317647
0.277124
0.311111
0.197386
0.162092
0.471895
0.30719
0.239216
0.228758
0.244444
0.214379
0.23268
0.345098
0.309804
0.321569
0.282353
0.339869
0.333333
0.321569
0.337255
0.339869
0.311111
0.284967
0.332026
0.245752
0.284967
0.270588
0.277124
0.277124
0.453595
0.329412
0.295425
0.29281
0.338562
0.286275
0.258824
0.296732
0.288889
0.330719
0.334641
0.346405
0.368627
0.345098
0.318954
0.304575
0.35817
0.287582
0.347712
0.290196
0.36732
0.291503
0.301961
0.284967
0.443137
0.298039
0.379085
0.352941
0.343791
0.326797
0.290196
0.31634
0.315033
0.308497
0.281046
0.363399
0.313725
0.282353
0.218301
0.312418
0.301961
0.330719
0.312418
0.318954
0.352941
0.31634
0.318954
0.32549
0.315033
0.346405
0.324183
0.286275
0.324183
0.31634
0.32549
0.29281
0.281046
0.337255
0.363399
0.341176
0.375163
0.320261
0.337255
0.31634
0.328105
0.317647
0.313725
0.324183
0.315033
0.312418
0.318954
0.311111
0.326797
0.322876
0.312418
0.320261
0.328105
0.332026
0.321569
0.437908
0.317647
0.321569
0.317647
0.247059
0.351634
0.301961
0.27451
0.304575
0.328105
0.317647
0.320261
0.312418
0.426144
0.317647
0.326797
0.419608
0.262745
0.320261
0.296732
0.335948
0.286275
0.342484
0.305882
0.32549
0.254902
0.309804
0.308497
0.447059
0.244444
0.216993
0.267974
0.322876
0.345098
0.265359
0.211765
0.321569
0.27451
0.235294
0.320261
0.277124
0.300654
0.28366
0.269281
0.298039
0.271895
0.324183
0.286275
0.294118
0.273203
0.267974
0.333333
0.309804
0.338562
0.322876
0.31634
0.282353
0.313725
0.326797
0.286275
0.32549
0.298039
0.345098
0.333333
0.342484
0.218301
0.213072
0.231373
0.262745
0.354248
0.29281
0.269281
0.281046
0.298039
0.320261
0.366013
0.460131
0.362092
0.335948
0.337255
0.366013
0.436601
0.311111
0.298039
0.197386
0.342484
0.343791
0.335948
0.338562
0.328105
0.356863
0.321569
0.273203
0.258824
0.245752
0.330719
0.335948
0.330719
0.31634
0.320261
0.352941
0.346405
0.334641
0.330719
0.333333
0.346405
0.294118
0.303268
0.335948
0.321569
0.28366
0.324183
0.350327
0.335948
0.317647
0.248366
0.309804
0.273203
0.228758
0.215686
0.279739
0.287582
0.4
0.405229
0.371242
0.426144
0.473203
0.465359
0.326797
0.381699
0.333333
0.372549
0.335948
0.320261
0.290196
0.333333
0.252288
0.328105
0.222222
0.244444
0.294118
0.216993
0.230065
0.147712
0.288889
0.275817
0.185621
0.418301
0.166013
0.194771
0.369935
0.171242
0.269281
0.288889
0.335948
0.275817
0.338562
0.398693
0.512418
0.31634
0.166013
0.282353
0.394771
0.258824
0.360784
0.337255
0.326797
0.20915
0.322876
0.142484
0.142484
0.467974
0.152941
0.235294
0.513725
0.670588
0.645752
0.496732
0.303268
0.449673
0.656209
0.598693
0.47451
0.444444
0.490196
0.311111
0.667974
0.484967
0.206536
0.452288
0.213072
0.24183
0.291503
0.291503
0.616993
0.499346
0.552941
0.27451
0.248366
0.342484
0.275817
0.288889
0.29281
0.379085
0.448366
0.626144
0.384314
0.337255
0.677124
0.486275
0.473203
0.681046
0.465359
0.466667
0.414379
0.67451
0.278431
0.428758
0.270588
0.388235
0.411765
0.699346
0.495425
0.771242
0.647059
0.768627
0.593464
0.501961
0.522876
0.424837
0.615686
0.654902
0.711111
0.712418
0.71634
0.713725
0.8
0.796078
0.699346
0.776471
0.713725
0.679739
0.854902
0.852288
0.677124
0.49281
0.653595
0.856209
0.359477
0.47451
0.853595
0.652288
0.852288
0.853595
0.852288
0.852288
0.853595
0.852288
