# vtk DataFile Version 1.0
Unstructured Grid Example
ASCII

DATASET UNSTRUCTURED_GRID
POINTS 6084 float
275 471 0
276 471 0
277 471 0
278 471 0
281 471 0
282 471 0
300 471 0
301 471 0
302 471 0
263 470 0
264 470 0
265 470 0
266 470 0
274 470 0
275 470 0
278 470 0
279 470 0
281 470 0
282 470 0
283 470 0
284 470 0
295 470 0
296 470 0
297 470 0
298 470 0
299 470 0
300 470 0
302 470 0
303 470 0
304 470 0
260 469 0
261 469 0
262 469 0
263 469 0
266 469 0
267 469 0
268 469 0
269 469 0
270 469 0
274 469 0
279 469 0
282 469 0
284 469 0
285 469 0
286 469 0
287 469 0
295 469 0
296 469 0
298 469 0
299 469 0
304 469 0
305 469 0
254 468 0
255 468 0
256 468 0
257 468 0
258 468 0
259 468 0
260 468 0
270 468 0
271 468 0
272 468 0
273 468 0
274 468 0
279 468 0
280 468 0
281 468 0
282 468 0
284 468 0
285 468 0
287 468 0
288 468 0
289 468 0
296 468 0
305 468 0
306 468 0
307 468 0
251 467 0
252 467 0
253 467 0
254 467 0
289 467 0
290 467 0
291 467 0
292 467 0
293 467 0
296 467 0
297 467 0
298 467 0
299 467 0
307 467 0
308 467 0
247 466 0
248 466 0
250 466 0
251 466 0
293 466 0
294 466 0
295 466 0
299 466 0
300 466 0
308 466 0
309 466 0
246 465 0
247 465 0
248 465 0
249 465 0
250 465 0
295 465 0
296 465 0
297 465 0
300 465 0
301 465 0
309 465 0
310 465 0
245 464 0
246 464 0
297 464 0
298 464 0
299 464 0
301 464 0
302 464 0
310 464 0
311 464 0
243 463 0
244 463 0
245 463 0
299 463 0
300 463 0
301 463 0
302 463 0
311 463 0
235 462 0
236 462 0
237 462 0
238 462 0
239 462 0
240 462 0
241 462 0
242 462 0
243 462 0
311 462 0
312 462 0
320 462 0
321 462 0
231 461 0
232 461 0
233 461 0
234 461 0
235 461 0
236 461 0
237 461 0
312 461 0
320 461 0
321 461 0
229 460 0
230 460 0
231 460 0
312 460 0
313 460 0
320 460 0
321 460 0
322 460 0
323 460 0
226 459 0
227 459 0
228 459 0
229 459 0
313 459 0
314 459 0
320 459 0
321 459 0
323 459 0
324 459 0
225 458 0
226 458 0
314 458 0
321 458 0
322 458 0
324 458 0
325 458 0
222 457 0
223 457 0
224 457 0
225 457 0
314 457 0
315 457 0
322 457 0
323 457 0
325 457 0
326 457 0
220 456 0
221 456 0
222 456 0
315 456 0
316 456 0
323 456 0
326 456 0
327 456 0
328 456 0
218 455 0
219 455 0
220 455 0
316 455 0
323 455 0
324 455 0
328 455 0
216 454 0
217 454 0
218 454 0
316 454 0
317 454 0
324 454 0
325 454 0
326 454 0
328 454 0
329 454 0
212 453 0
213 453 0
214 453 0
215 453 0
216 453 0
317 453 0
326 453 0
329 453 0
330 453 0
209 452 0
210 452 0
211 452 0
212 452 0
317 452 0
318 452 0
319 452 0
326 452 0
327 452 0
330 452 0
331 452 0
338 452 0
339 452 0
205 451 0
206 451 0
207 451 0
208 451 0
209 451 0
319 451 0
320 451 0
321 451 0
322 451 0
327 451 0
331 451 0
332 451 0
338 451 0
339 451 0
202 450 0
203 450 0
204 450 0
205 450 0
322 450 0
327 450 0
328 450 0
329 450 0
332 450 0
333 450 0
339 450 0
340 450 0
199 449 0
200 449 0
201 449 0
202 449 0
322 449 0
323 449 0
324 449 0
325 449 0
329 449 0
333 449 0
339 449 0
340 449 0
197 448 0
198 448 0
199 448 0
325 448 0
326 448 0
329 448 0
330 448 0
333 448 0
339 448 0
340 448 0
196 447 0
197 447 0
326 447 0
327 447 0
330 447 0
331 447 0
333 447 0
334 447 0
194 446 0
195 446 0
196 446 0
327 446 0
328 446 0
331 446 0
332 446 0
334 446 0
193 445 0
194 445 0
328 445 0
332 445 0
334 445 0
335 445 0
191 444 0
192 444 0
193 444 0
328 444 0
329 444 0
332 444 0
335 444 0
336 444 0
190 443 0
191 443 0
329 443 0
330 443 0
331 443 0
332 443 0
336 443 0
337 443 0
342 443 0
343 443 0
188 442 0
189 442 0
190 442 0
330 442 0
331 442 0
337 442 0
342 442 0
343 442 0
185 441 0
186 441 0
187 441 0
188 441 0
337 441 0
342 441 0
343 441 0
184 440 0
185 440 0
186 440 0
337 440 0
338 440 0
183 439 0
184 439 0
338 439 0
339 439 0
343 439 0
344 439 0
180 438 0
181 438 0
182 438 0
183 438 0
335 438 0
336 438 0
339 438 0
340 438 0
343 438 0
344 438 0
178 437 0
179 437 0
180 437 0
335 437 0
336 437 0
340 437 0
343 437 0
344 437 0
176 436 0
177 436 0
178 436 0
335 436 0
336 436 0
337 436 0
340 436 0
341 436 0
343 436 0
344 436 0
174 435 0
175 435 0
176 435 0
335 435 0
336 435 0
337 435 0
341 435 0
343 435 0
344 435 0
345 435 0
172 434 0
173 434 0
174 434 0
336 434 0
337 434 0
341 434 0
342 434 0
343 434 0
345 434 0
172 433 0
345 433 0
171 432 0
172 432 0
345 432 0
170 431 0
171 431 0
345 431 0
169 430 0
170 430 0
341 430 0
342 430 0
345 430 0
169 429 0
341 429 0
342 429 0
345 429 0
348 429 0
349 429 0
168 428 0
169 428 0
342 428 0
343 428 0
345 428 0
348 428 0
349 428 0
350 428 0
168 427 0
342 427 0
343 427 0
345 427 0
348 427 0
350 427 0
167 426 0
168 426 0
342 426 0
343 426 0
345 426 0
348 426 0
350 426 0
166 425 0
167 425 0
345 425 0
348 425 0
349 425 0
350 425 0
166 424 0
345 424 0
348 424 0
349 424 0
166 423 0
345 423 0
348 423 0
349 423 0
165 422 0
166 422 0
345 422 0
346 422 0
348 422 0
349 422 0
165 421 0
345 421 0
346 421 0
347 421 0
348 421 0
164 420 0
165 420 0
347 420 0
348 420 0
164 419 0
347 419 0
348 419 0
163 418 0
164 418 0
347 418 0
162 417 0
163 417 0
347 417 0
162 416 0
163 416 0
347 416 0
162 415 0
347 415 0
161 414 0
162 414 0
347 414 0
161 413 0
162 413 0
347 413 0
161 412 0
347 412 0
161 411 0
347 411 0
161 410 0
347 410 0
160 409 0
161 409 0
347 409 0
348 409 0
349 409 0
160 408 0
161 408 0
347 408 0
348 408 0
349 408 0
160 407 0
346 407 0
347 407 0
348 407 0
349 407 0
159 406 0
160 406 0
346 406 0
348 406 0
349 406 0
158 405 0
159 405 0
346 405 0
158 404 0
346 404 0
157 403 0
158 403 0
346 403 0
156 402 0
157 402 0
346 402 0
156 401 0
346 401 0
155 400 0
156 400 0
346 400 0
154 399 0
155 399 0
346 399 0
152 398 0
153 398 0
154 398 0
256 398 0
257 398 0
258 398 0
346 398 0
347 398 0
152 397 0
256 397 0
257 397 0
258 397 0
346 397 0
347 397 0
151 396 0
152 396 0
241 396 0
242 396 0
243 396 0
244 396 0
245 396 0
246 396 0
247 396 0
248 396 0
249 396 0
250 396 0
251 396 0
252 396 0
255 396 0
256 396 0
257 396 0
258 396 0
260 396 0
261 396 0
346 396 0
150 395 0
151 395 0
224 395 0
225 395 0
226 395 0
230 395 0
231 395 0
232 395 0
233 395 0
237 395 0
238 395 0
239 395 0
240 395 0
241 395 0
252 395 0
253 395 0
254 395 0
255 395 0
257 395 0
258 395 0
259 395 0
260 395 0
261 395 0
263 395 0
264 395 0
265 395 0
346 395 0
150 394 0
218 394 0
219 394 0
220 394 0
221 394 0
222 394 0
223 394 0
224 394 0
225 394 0
226 394 0
227 394 0
228 394 0
229 394 0
230 394 0
232 394 0
233 394 0
234 394 0
235 394 0
236 394 0
237 394 0
239 394 0
240 394 0
252 394 0
253 394 0
254 394 0
260 394 0
261 394 0
262 394 0
263 394 0
264 394 0
265 394 0
266 394 0
267 394 0
268 394 0
345 394 0
346 394 0
149 393 0
150 393 0
218 393 0
219 393 0
222 393 0
223 393 0
224 393 0
225 393 0
226 393 0
228 393 0
229 393 0
252 393 0
253 393 0
267 393 0
268 393 0
269 393 0
270 393 0
345 393 0
149 392 0
219 392 0
220 392 0
223 392 0
224 392 0
225 392 0
270 392 0
271 392 0
345 392 0
149 391 0
150 391 0
219 391 0
220 391 0
221 391 0
222 391 0
268 391 0
269 391 0
271 391 0
272 391 0
273 391 0
275 391 0
276 391 0
277 391 0
278 391 0
345 391 0
150 390 0
216 390 0
217 390 0
218 390 0
219 390 0
220 390 0
221 390 0
222 390 0
268 390 0
269 390 0
273 390 0
274 390 0
275 390 0
276 390 0
278 390 0
279 390 0
344 390 0
345 390 0
149 389 0
150 389 0
215 389 0
216 389 0
275 389 0
276 389 0
278 389 0
279 389 0
280 389 0
281 389 0
282 389 0
283 389 0
284 389 0
344 389 0
149 388 0
212 388 0
213 388 0
214 388 0
215 388 0
281 388 0
282 388 0
283 388 0
284 388 0
285 388 0
286 388 0
287 388 0
288 388 0
289 388 0
343 388 0
344 388 0
149 387 0
212 387 0
288 387 0
289 387 0
290 387 0
291 387 0
292 387 0
343 387 0
148 386 0
149 386 0
212 386 0
213 386 0
292 386 0
293 386 0
294 386 0
295 386 0
296 386 0
297 386 0
298 386 0
299 386 0
342 386 0
343 386 0
147 385 0
148 385 0
209 385 0
210 385 0
211 385 0
213 385 0
214 385 0
298 385 0
299 385 0
300 385 0
341 385 0
342 385 0
146 384 0
147 384 0
209 384 0
210 384 0
211 384 0
213 384 0
214 384 0
299 384 0
300 384 0
301 384 0
302 384 0
303 384 0
305 384 0
306 384 0
341 384 0
342 384 0
343 384 0
344 384 0
146 383 0
209 383 0
211 383 0
212 383 0
213 383 0
303 383 0
304 383 0
305 383 0
306 383 0
307 383 0
344 383 0
345 383 0
145 382 0
146 382 0
207 382 0
208 382 0
209 382 0
211 382 0
212 382 0
303 382 0
304 382 0
305 382 0
306 382 0
307 382 0
345 382 0
346 382 0
347 382 0
144 381 0
145 381 0
207 381 0
208 381 0
306 381 0
307 381 0
308 381 0
309 381 0
347 381 0
144 380 0
145 380 0
207 380 0
309 380 0
310 380 0
347 380 0
348 380 0
143 379 0
144 379 0
206 379 0
207 379 0
310 379 0
311 379 0
348 379 0
349 379 0
350 379 0
143 378 0
204 378 0
205 378 0
206 378 0
311 378 0
312 378 0
315 378 0
316 378 0
338 378 0
339 378 0
340 378 0
341 378 0
350 378 0
351 378 0
142 377 0
143 377 0
204 377 0
311 377 0
312 377 0
313 377 0
315 377 0
316 377 0
338 377 0
341 377 0
342 377 0
351 377 0
352 377 0
353 377 0
354 377 0
355 377 0
142 376 0
143 376 0
199 376 0
200 376 0
201 376 0
202 376 0
203 376 0
204 376 0
313 376 0
314 376 0
315 376 0
316 376 0
338 376 0
339 376 0
340 376 0
342 376 0
355 376 0
142 375 0
198 375 0
199 375 0
202 375 0
203 375 0
204 375 0
314 375 0
315 375 0
316 375 0
340 375 0
341 375 0
342 375 0
352 375 0
353 375 0
355 375 0
142 374 0
198 374 0
199 374 0
200 374 0
316 374 0
317 374 0
352 374 0
353 374 0
354 374 0
355 374 0
142 373 0
199 373 0
200 373 0
317 373 0
352 373 0
354 373 0
355 373 0
142 372 0
143 372 0
198 372 0
199 372 0
317 372 0
352 372 0
354 372 0
355 372 0
356 372 0
143 371 0
196 371 0
197 371 0
198 371 0
199 371 0
317 371 0
318 371 0
319 371 0
320 371 0
347 371 0
348 371 0
349 371 0
350 371 0
352 371 0
353 371 0
354 371 0
355 371 0
356 371 0
143 370 0
196 370 0
197 370 0
199 370 0
200 370 0
318 370 0
319 370 0
320 370 0
347 370 0
348 370 0
349 370 0
350 370 0
351 370 0
352 370 0
353 370 0
355 370 0
356 370 0
143 369 0
200 369 0
320 369 0
349 369 0
350 369 0
352 369 0
353 369 0
354 369 0
143 368 0
199 368 0
200 368 0
320 368 0
350 368 0
352 368 0
353 368 0
354 368 0
143 367 0
196 367 0
197 367 0
198 367 0
199 367 0
320 367 0
321 367 0
350 367 0
351 367 0
353 367 0
354 367 0
143 366 0
196 366 0
197 366 0
198 366 0
320 366 0
321 366 0
322 366 0
351 366 0
354 366 0
355 366 0
356 366 0
357 366 0
[...]
CELL_DATA 6084
COLOR_SCALARS lut 1
0.249511
0.251527
0.254107
0.257074
0.266195
0.268489
0.211947
0.210807
0.21059
0.312318
0.3018
0.292256
0.28382
0.258371
0.259657
0.267141
0.270262
0.276137
0.278363
0.279782
0.280192
0.236011
0.231288
0.226978
0.22321
0.22011
0.217784
0.215747
0.21611
0.217388
0.360897
0.348536
0.336496
0.325037
0.296131
0.288768
0.282658
0.277809
0.274181
0.270312
0.281978
0.289829
0.29138
0.290474
0.288418
0.285329
0.244607
0.239639
0.230993
0.227558
0.222677
0.224323
0.444295
0.434117
0.423342
0.41198
0.400096
0.387836
0.375404
0.288193
0.285707
0.284293
0.283849
0.284287
0.29565
0.298572
0.301175
0.30318
0.304404
0.303288
0.297645
0.29343
0.288552
0.249643
0.230087
0.231874
0.234372
0.486076
0.477746
0.46891
0.45953
0.302276
0.296647
0.29074
0.284714
0.278691
0.26146
0.256245
0.251453
0.247195
0.239702
0.242024
0.529757
0.523093
0.509091
0.501584
0.293317
0.287105
0.281036
0.259606
0.255433
0.247454
0.249432
0.55058
0.544565
0.538409
0.532046
0.525392
0.29701
0.290778
0.284772
0.269012
0.264825
0.254822
0.256327
0.571297
0.565973
0.30179
0.295586
0.289723
0.279382
0.275055
0.261534
0.262463
0.596503
0.591973
0.587379
0.307341
0.301224
0.295547
0.290378
0.267361
0.643822
0.639575
0.635512
0.63159
0.627762
0.623991
0.620244
0.616489
0.612701
0.273235
0.27215
0.289477
0.295274
0.673466
0.668791
0.664395
0.660267
0.656399
0.652764
0.64932
0.277629
0.285521
0.290472
0.693858
0.689244
0.684946
0.284155
0.280941
0.282163
0.286176
0.291241
0.297316
0.718898
0.714074
0.709566
0.705385
0.287127
0.283293
0.279596
0.282589
0.291834
0.29796
0.733836
0.729546
0.289222
0.279897
0.28294
0.292228
0.298277
0.75711
0.752859
0.748882
0.745197
0.296383
0.290654
0.280191
0.283241
0.292351
0.298166
0.774591
0.77085
0.767318
0.297744
0.291662
0.280502
0.292114
0.297527
0.303457
0.790401
0.787448
0.784565
0.298806
0.279024
0.280802
0.296283
0.803787
0.802063
0.800184
0.30739
0.299816
0.279518
0.281048
0.283436
0.290257
0.294421
0.812035
0.813263
0.81382
0.813838
0.813448
0.308663
0.281182
0.288575
0.292008
0.807178
0.812299
0.816351
0.819475
0.319069
0.310231
0.30255
0.280506
0.281125
0.28644
0.28919
0.328636
0.338776
0.774634
0.786588
0.796968
0.805857
0.813377
0.312256
0.304582
0.298073
0.292711
0.280822
0.283982
0.286185
0.31801
0.327762
0.728954
0.746723
0.763141
0.778028
0.300565
0.282213
0.280864
0.280103
0.281393
0.283247
0.317763
0.328738
0.667154
0.688852
0.710039
0.730377
0.310135
0.303408
0.297636
0.292741
0.280515
0.278894
0.308844
0.319344
0.619828
0.642972
0.666328
0.300171
0.294739
0.282523
0.279725
0.276004
0.301034
0.310981
0.594093
0.618161
0.302388
0.296296
0.281918
0.278537
0.274531
0.27417
0.545174
0.568496
0.593132
0.304002
0.297177
0.280831
0.277081
0.27294
0.520341
0.543487
0.304796
0.279411
0.272949
0.271778
0.476431
0.496875
0.519524
0.313598
0.304679
0.282945
0.271885
0.271262
0.455708
0.475159
0.313226
0.30373
0.295142
0.287627
0.271443
0.271609
0.303325
0.316193
0.421225
0.437162
0.455523
0.312013
0.302154
0.271829
0.299189
0.311341
0.381441
0.392726
0.405766
0.42082
0.273015
0.295808
0.307191
0.368304
0.379428
0.392118
0.275094
0.274215
0.356439
0.36749
0.276039
0.276296
0.300661
0.312708
0.328805
0.336499
0.345892
0.356851
0.293936
0.286776
0.277748
0.279231
0.298115
0.309271
0.315096
0.32048
0.327727
0.300508
0.29221
0.280195
0.295979
0.306187
0.306047
0.308992
0.313848
0.307722
0.298284
0.290837
0.281703
0.283386
0.294257
0.303471
0.301626
0.302083
0.304485
0.315543
0.304974
0.29638
0.284327
0.293014
0.3012
0.311919
0.301745
0.299631
0.299522
0.312259
0.302531
0.285857
0.287795
0.292324
0.309188
0.298791
0.307058
0.298814
0.297549
0.305582
0.299432
0.297549
0.304788
0.300463
0.297897
0.298134
0.295658
0.304682
0.298496
0.302635
0.299125
0.30524
0.336815
0.352683
0.299369
0.29762
0.303085
0.301322
0.306386
0.335688
0.350955
0.368742
0.297956
0.307441
0.30473
0.308012
0.335111
0.36708
0.298654
0.297588
0.312097
0.308463
0.310001
0.334941
0.365843
0.299846
0.297702
0.312241
0.335031
0.348575
0.364864
0.298318
0.314618
0.335245
0.348209
0.297708
0.317032
0.335475
0.347848
0.29831
0.297948
0.3194
0.32156
0.335649
0.347423
0.297834
0.32165
0.323026
0.327726
0.335714
0.298402
0.298095
0.328293
0.33562
0.297965
0.328621
0.335305
0.298751
0.298325
0.3286
0.300603
0.298546
0.328082
0.299855
0.299161
0.326904
0.299874
0.324928
0.301654
0.300606
0.322103
0.301714
0.302004
0.318522
0.302376
0.314386
0.303524
0.309969
0.304996
0.305584
0.303923
0.306634
0.301541
0.304484
0.311024
0.304262
0.308355
0.298103
0.301055
0.307605
0.304727
0.296097
0.295456
0.298486
0.30511
0.301422
0.305485
0.294211
0.296884
0.303641
0.298523
0.301284
0.293218
0.29766
0.29312
0.294627
0.297701
0.293882
0.292161
0.294192
0.295437
0.291271
0.2977
0.288866
0.291481
0.30057
0.286972
0.288629
0.303921
0.28756
0.28565
0.286304
0.265188
0.265413
0.266208
0.3076
0.309789
0.285007
0.254788
0.254763
0.255259
0.311407
0.314012
0.285184
0.283534
0.291455
0.287503
0.283817
0.280275
0.276742
0.273134
0.269477
0.265862
0.262383
0.25913
0.256186
0.253622
0.248566
0.247798
0.247492
0.247652
0.249414
0.25106
0.31509
0.286352
0.283338
0.386229
0.379726
0.373303
0.348967
0.343041
0.337038
0.330933
0.307032
0.301742
0.296886
0.292469
0.288447
0.251004
0.24871
0.246838
0.24539
0.243748
0.24354
0.243746
0.24438
0.245471
0.249161
0.251818
0.255054
0.318354
0.284166
0.405943
0.40113
0.396388
0.391558
0.386554
0.381372
0.376068
0.370703
0.365345
0.360043
0.35482
0.349653
0.344489
0.333885
0.328359
0.32273
0.317102
0.31161
0.306379
0.29702
0.292945
0.252059
0.249592
0.247519
0.242842
0.243347
0.244282
0.245685
0.24759
0.250037
0.253061
0.256688
0.260924
0.320416
0.320877
0.286196
0.28295
0.390644
0.387177
0.376743
0.372916
0.368916
0.364787
0.360583
0.352107
0.347837
0.256712
0.254062
0.253327
0.256678
0.260605
0.265044
0.321491
0.284634
0.37574
0.373846
0.367363
0.364754
0.361942
0.262309
0.266218
0.32138
0.283943
0.283214
0.366873
0.366533
0.366136
0.365541
0.258188
0.260312
0.26591
0.269102
0.272286
0.277819
0.279954
0.281713
0.283237
0.320002
0.284573
0.358687
0.358773
0.359487
0.360597
0.361867
0.363082
0.36408
0.263881
0.265143
0.273503
0.275527
0.277168
0.278381
0.27987
0.280474
0.318559
0.317428
0.284985
0.286704
0.349367
0.350154
0.279979
0.28029
0.280009
0.27975
0.279632
0.279786
0.280322
0.281315
0.282811
0.314681
0.286726
0.341684
0.340372
0.340401
0.341664
0.280948
0.280659
0.280822
0.281483
0.28267
0.284401
0.286685
0.289532
0.292981
0.313531
0.310086
0.289391
0.331774
0.288337
0.290899
0.29411
0.298008
0.302618
0.308282
0.290831
0.293111
0.323979
0.325589
0.301277
0.305647
0.310724
0.31646
0.322767
0.329501
0.336509
0.343674
0.308487
0.302894
0.294136
0.29456
0.318819
0.316895
0.316711
0.321313
0.325898
0.332245
0.338268
0.344383
0.310692
0.303093
0.299453
0.297985
0.310736
0.31019
0.311425
0.318965
0.325057
0.336042
0.340948
0.345941
0.351052
0.356306
0.367059
0.372362
0.305579
0.298132
0.29271
0.289524
0.30354
0.304473
0.307985
0.312386
0.318431
0.352158
0.356245
0.360362
0.364413
0.368321
0.285107
0.284101
0.311433
0.30915
0.301127
0.299583
0.299957
0.306285
0.312105
0.350926
0.353671
0.356445
0.35916
0.361752
0.280141
0.281176
0.284673
0.32193
0.317561
0.295494
0.295324
0.356619
0.357826
0.358906
0.359876
0.280538
0.328754
0.325412
0.291401
0.35578
0.35534
0.277295
0.281965
0.343038
0.337381
0.28814
0.288738
0.352353
0.35063
0.278959
0.285215
0.293878
0.352584
0.28743
0.285489
0.285458
0.348677
0.345867
0.340772
0.340875
0.322937
0.313055
0.303726
0.295228
0.290024
0.300077
0.371277
0.363914
0.283445
0.349011
0.344888
0.341264
0.336385
0.335564
0.325208
0.297918
0.29038
0.296099
0.30739
0.320915
0.336534
0.354101
0.383598
0.376931
0.306967
0.297938
0.290772
0.285487
0.282103
0.280636
0.341211
0.337129
0.334087
0.332291
0.328884
0.319523
0.31045
0.294237
0.346589
0.397567
0.310862
0.300625
0.281674
0.279285
0.278859
0.337942
0.333798
0.33099
0.315775
0.307208
0.299307
0.29967
0.310877
0.339702
0.413114
0.305349
0.295675
0.288056
0.331536
0.329263
0.296973
0.306958
0.319144
0.333459
0.430188
0.292041
0.284973
0.33053
0.295062
0.31476
0.327907
0.448728
0.44416
0.298458
0.289609
0.333317
0.293976
0.311161
0.323116
0.337263
0.464421
0.320723
0.30771
0.296864
0.288253
0.337464
0.334164
0.332823
0.333415
0.294192
0.290401
0.28828
0.288028
0.293753
0.299943
0.308413
0.319165
0.332177
0.485829
0.320065
0.307111
0.287855
0.281651
0.338597
0.336446
0.336338
0.300664
0.295846
0.292615
0.291183
0.291733
0.294415
0.299338
0.316112
0.327987
0.508161
0.282105
0.340264
0.297736
0.295146
0.295931
0.299607
0.305603
0.531157
0.28948
0.28317
0.345003
0.299812
0.298216
0.300679
0.305479
0.554534
0.324354
0.31117
0.300125
0.291309
0.350335
0.35042
0.305039
0.302074
0.302445
0.306091
0.577998
0.327417
0.314071
0.302805
0.356006
0.355499
0.357283
0.306637
0.307335
0.312354
0.319911
0.330026
0.601244
0.306053
0.296635
0.360632
0.361939
0.311533
0.309111
0.313117
0.319701
0.328893
0.340678
0.627178
0.62396
0.309795
0.300022
0.282152
0.28308
0.365497
0.366335
0.316649
0.312625
0.310787
0.311325
0.328367
0.339333
0.352886
0.368919
0.649083
0.313957
0.303819
0.295677
0.289588
0.285587
0.283703
0.283962
0.369759
0.370149
0.321914
0.317007
0.313909
0.316079
0.328376
0.351391
0.366766
0.384568
0.669867
0.285047
0.286739
0.373127
0.373103
0.327323
0.321605
0.318037
0.318175
0.328865
0.3383
0.382385
0.689174
0.287261
0.375022
0.326468
0.322124
0.320134
0.320677
0.338511
0.380679
0.706649
0.287919
0.290245
0.294791
0.301568
0.310539
0.375868
0.33168
0.326603
0.331225
0.339184
0.379395
0.721952
0.718184
0.299936
0.308153
0.375744
0.331564
0.333128
0.363084
0.378498
0.730758
0.290072
0.293051
0.298273
0.30572
0.374858
0.337069
0.335532
0.363211
0.377957
0.740504
0.289838
0.292067
0.296523
0.303199
0.373477
0.343149
0.338178
0.338423
0.363699
0.751731
0.747158
0.290921
0.37187
0.373647
0.344051
0.341761
0.346469
0.364499
0.377773
0.755449
0.289549
0.372196
0.350402
0.346197
0.345486
0.349283
0.378041
0.755881
0.750661
0.287611
0.287897
0.370994
0.352088
0.349489
0.352396
0.378515
0.393038
0.747526
0.286168
0.285933
0.370138
0.354786
0.355789
0.360611
0.379222
0.392971
0.741287
0.283653
0.366761
0.369665
0.360375
0.358536
0.363369
0.380237
0.393212
0.732131
0.729334
0.281076
0.28183
0.284437
0.366184
0.363503
0.363523
0.366493
0.372524
0.381661
0.717149
0.278232
0.278572
0.280655
0.365878
0.367958
0.370057
0.37525
0.383601
0.702495
0.276775
0.280032
0.365825
0.386158
0.685605
0.275604
0.279853
0.285559
0.36386
0.366075
0.389384
0.666727
0.280029
0.286416
0.294106
0.303087
0.313355
0.36382
0.393276
0.402948
0.646132
0.305182
0.31597
0.328101
0.364287
0.397791
0.406996
0.624118
0.307583
0.318991
0.331828
0.36539
0.402843
0.601003
0.322681
0.336392
0.367217
0.408271
0.577117
0.319698
0.317352
0.310931
0.309289
0.307406
0.305207
0.279904
0.275433
0.27107
0.327312
0.369927
0.366887
0.369799
0.41386
0.552791
0.309702
0.306786
0.304587
0.302984
0.300981
0.300249
0.299484
0.298569
0.295944
0.294106
0.291869
0.289231
0.286209
0.282836
0.279175
0.275314
0.267456
0.263737
0.260347
0.318923
0.333144
0.370759
0.368565
0.373117
0.414805
0.419358
0.528362
0.306137
0.301351
0.294483
0.289913
0.289461
0.289288
0.28923
0.289134
0.288886
0.25784
0.255105
0.252857
0.324934
0.372231
0.370903
0.372538
0.37711
0.420116
0.504157
0.301392
0.29531
0.29026
0.286178
0.283012
0.280713
0.251022
0.249367
0.248287
0.247852
0.317439
0.374293
0.424745
0.429022
0.48049
0.285676
0.272514
0.270019
0.268381
0.246117
0.246166
0.310667
0.376949
0.432647
0.440378
0.461445
0.457643
0.271533
0.258448
0.257415
0.24448
0.244959
0.246111
0.248013
0.304632
0.380295
0.381667
0.435163
0.442895
0.439489
0.305104
0.294955
0.258927
0.244146
0.24575
0.24817
0.29934
0.385007
0.384486
0.386782
0.436413
0.425008
0.41873
0.28984
0.280466
0.272007
0.24781
0.245903
0.248974
0.294771
0.308242
0.389214
0.436376
0.405355
0.276249
0.259884
0.253037
0.247109
0.242133
0.238135
0.24674
0.250624
0.304038
0.319051
0.394481
0.435192
0.395715
0.38707
0.264322
0.237815
0.23338
0.229875
0.22561
0.224758
0.248464
0.315188
0.341006
0.336062
0.332401
0.329943
0.328592
0.328252
0.328844
0.330305
0.332594
0.400831
0.433131
0.378576
0.254033
0.246825
0.219493
0.218956
0.246531
0.25128
0.311869
0.331879
0.325671
0.316263
0.319008
0.322517
0.326809
0.408209
0.430555
0.373656
0.362784
0.299918
0.289183
0.279018
0.269508
0.260707
0.238793
0.249426
0.255368
0.262736
0.271682
0.282327
0.308964
0.345027
0.334747
0.325894
0.318438
0.311124
0.315739
0.416495
0.422468
0.427874
0.358871
0.288581
0.278522
0.252187
0.244824
0.238187
0.232265
0.227046
0.222524
0.218714
0.216699
0.21912
0.221711
0.224344
0.226912
0.229326
0.231522
0.233457
0.235101
0.236434
0.280126
0.292341
0.306318
0.344621
0.333069
0.322952
0.301332
0.306219
0.425521
0.419721
0.345271
0.322172
0.319556
0.319255
0.269446
0.260673
0.238489
0.23249
0.222496
0.215112
0.212437
0.209688
0.211012
0.212807
0.214978
0.21741
0.234088
0.23498
0.235562
0.235847
0.235851
0.334301
0.293008
0.298138
0.43509
0.417626
0.33276
0.322773
0.315355
0.31047
0.307824
0.309648
0.253748
0.246323
0.23959
0.219254
0.212778
0.210479
0.207627
0.207973
0.208892
0.23376
0.233356
0.232741
0.231962
0.231075
0.338273
0.325708
0.286077
0.291447
0.440261
0.444997
0.416543
0.321254
0.311613
0.299404
0.235308
0.229871
0.217228
0.211629
0.208377
0.207697
0.207633
0.228968
0.227868
0.2268
0.344742
0.331076
0.280537
0.28616
0.449424
0.416767
0.310694
0.301427
0.288247
0.290235
0.275005
0.2664
0.258275
0.250757
0.232263
0.227415
0.223173
0.216355
0.213724
0.211605
0.21002
0.209004
0.224794
0.223621
0.222627
0.221875
0.338751
0.268647
0.265012
0.262163
0.259989
0.276433
0.282339
0.289089
0.296669
0.30503
0.454289
0.458622
0.418525
0.301043
0.292176
0.280004
0.282095
0.278051
0.269667
0.254057
0.247132
0.240888
0.235328
0.230427
0.226149
0.22245
0.216619
0.214423
0.212692
0.211445
0.210712
0.219587
0.218954
0.218716
0.334102
0.282285
0.275741
0.270286
0.265803
0.256958
0.255183
0.295139
0.462594
0.467726
0.419025
0.41655
0.42199
0.273945
0.27233
0.272733
0.273436
0.21805
0.216278
0.214923
0.213998
0.213534
0.216242
0.216275
0.330624
0.318042
0.306714
0.296684
0.287945
0.280441
0.253419
0.251888
0.250729
0.249929
0.249506
0.249503
0.24999
0.251039
0.252721
0.287058
0.295412
0.304495
0.314165
0.470825
0.476664
0.422851
0.420856
0.422312
0.427289
0.267146
0.265781
0.269983
0.262653
0.234153
0.230412
0.227252
0.224618
0.222455
0.220714
0.21936
0.218372
0.217759
0.217549
0.213771
0.21412
0.248397
0.249637
0.25156
0.288813
0.29764
0.307146
0.317184
0.327644
0.338478
0.349668
0.361188
0.478978
0.42904
0.434522
0.264316
0.261171
0.260886
0.254541
0.248765
0.24365
0.239224
0.235464
0.244837
0.244526
0.2116
0.24947
0.251733
0.254815
0.311995
0.322527
0.345051
0.357003
0.487084
0.43778
0.270788
0.263704
0.258801
0.25599
0.255147
0.256115
0.249422
0.244974
0.241211
0.244008
0.24609
0.247952
0.249479
0.250566
0.251126
0.251105
0.250484
0.249285
0.24755
0.209386
0.209812
0.253283
0.256894
0.261439
0.330554
0.342368
0.354737
0.495196
0.50251
0.448602
0.273991
0.265199
0.254079
0.251601
0.252171
0.254877
0.237093
0.237227
0.237547
0.246387
0.248463
0.250612
0.252745
0.254757
0.256527
0.254089
0.251339
0.248125
0.244527
0.240627
0.207593
0.20771
0.22941
0.236448
0.244808
0.254582
0.256314
0.260618
0.265919
0.272247
0.279601
0.287943
0.318022
0.329486
0.510948
0.461557
0.306343
0.291679
0.279127
0.268703
0.26042
0.254259
0.250155
0.251803
0.246387
0.245746
0.245478
0.245506
0.245762
0.246185
0.247392
0.248192
0.249165
0.257007
0.259055
0.245962
0.241131
0.236198
0.206101
0.206589
0.20778
0.225942
0.240781
0.250256
0.288068
0.318534
0.330275
0.519365
0.47236
0.476654
0.300251
0.274147
0.264257
0.256472
0.250756
0.24945
0.254256
0.253962
0.260093
0.261285
0.262611
0.264096
0.265741
0.269454
0.271466
0.241086
0.23538
0.229839
0.224602
0.206106
0.207746
0.217659
0.222957
0.246414
0.289604
0.299069
0.309461
0.320708
0.332779
0.527787
0.488871
0.310766
0.295072
0.253365
0.248072
0.247781
0.26382
0.26273
0.262277
0.262389
0.280004
0.281816
0.283717
0.22797
0.222424
0.206326
0.208483
0.211496
0.215463
0.243123
0.253459
0.265242
0.2784
0.292792
0.292309
0.302039
0.324332
0.336794
0.536239
0.507328
0.30602
0.251098
0.2462
0.243798
0.246746
0.270887
0.270185
0.225707
0.220055
0.207289
0.210052
0.261918
0.274763
0.288821
0.544739
0.524402
0.527562
0.302256
0.249654
0.24337
0.277281
0.277063
0.223122
0.217583
0.247913
0.259115
0.553303
0.545339
0.299475
0.248994
0.243484
0.282995
0.220324
0.245814
0.256751
0.561935
0.567584
0.31374
0.297656
0.24907
0.242417
0.244059
0.286585
0.287638
0.289267
0.223289
0.254733
0.266716
0.570624
0.590881
0.312509
0.249812
0.246053
0.243861
0.243499
0.288896
0.290704
0.293035
0.295987
0.226371
0.219877
0.233412
0.242516
0.264708
0.579323
0.588452
0.611123
0.614968
0.312213
0.245402
0.244588
0.244909
0.292005
0.229488
0.222361
0.232261
0.241183
0.262929
0.587962
0.596903
0.634624
0.312798
0.295274
0.299642
0.241633
0.232588
0.224844
0.218433
0.213338
0.261373
0.596439
0.6552
0.658374
0.314194
0.289277
0.293683
0.298697
0.304392
0.245343
0.235649
0.227315
0.220377
0.21482
0.230509
0.239134
0.260095
0.263579
0.258553
0.253686
0.24912
0.244978
0.241334
0.238212
0.231737
0.230359
0.229287
0.228496
0.227977
0.227726
0.604631
0.613199
0.676097
0.67768
0.316332
0.290479
0.238663
0.22978
0.222351
0.216361
0.211752
0.208433
0.206317
0.205331
0.230067
0.23858
0.248339
0.259214
0.26845
0.264008
0.259487
0.254917
0.245945
0.241792
0.238029
0.231906
0.229562
0.227654
0.226123
0.222814
0.222976
0.223477
0.6208
0.696774
0.696963
0.319144
0.285964
0.291854
0.224361
0.217982
0.213036
0.209431
0.207077
0.205898
0.248145
0.315873
0.309297
0.303099
0.263275
0.259394
0.251388
0.247281
0.239162
0.23539
0.219341
0.220376
0.221936
0.224121
0.227026
0.230743
0.23536
0.240973
0.62785
0.715698
0.322551
0.280512
0.286534
0.219669
0.214436
0.20967
0.213015
0.217606
0.248574
0.305383
0.298732
0.292534
0.255151
0.251703
0.244565
0.240876
0.232775
0.238675
0.634193
0.733381
0.733843
0.326436
0.311134
0.298054
0.287104
0.280452
0.228381
0.221392
0.21593
0.211901
0.210675
0.218697
0.249736
0.303832
0.296713
0.29
0.283807
0.257812
0.254689
0.251655
0.24863
0.239193
0.235867
0.232495
0.229172
0.226024
0.225567
0.230602
0.236715
0.639698
0.748971
0.348398
0.330634
0.315095
0.290544
0.280663
0.230303
0.223109
0.217485
0.213336
0.210569
0.209105
0.212122
0.220358
0.251705
0.304835
0.297259
0.277074
0.255153
0.252106
0.232394
0.229302
0.223307
0.223784
0.228934
0.242672
0.251481
0.2617
0.644271
0.762418
0.763306
0.373161
0.352986
0.33496
0.319131
0.293946
0.258442
0.262518
0.267609
0.281178
0.289793
0.232107
0.224785
0.219071
0.214873
0.212099
0.21067
0.214026
0.217678
0.222617
0.254535
0.308473
0.300502
0.272451
0.257978
0.254361
0.251201
0.233353
0.230573
0.222052
0.227859
0.234195
0.241777
0.250714
0.261095
0.647861
0.773863
0.377992
0.33922
0.323062
0.309065
0.297156
0.251462
0.253778
0.257118
0.261541
0.267115
0.273919
0.282029
0.291484
0.242836
0.233768
0.226403
0.216514
0.21381
0.212493
0.216415
0.220313
0.258269
0.306467
0.29831
0.270014
0.259842
0.255791
0.235561
0.23312
0.222388
0.233817
0.241426
0.250409
0.260862
0.272849
0.642554
0.650455
0.783888
0.382607
0.343214
0.326699
0.312321
0.300017
0.289665
0.249973
0.252441
0.256056
0.260879
0.26697
0.274405
0.283248
0.293525
0.244345
0.235294
0.227977
0.218284
0.215733
0.214607
0.219326
0.223544
0.252909
0.262935
0.306623
0.298314
0.269818
0.264411
0.259759
0.23711
0.234832
0.224453
0.217728
0.215982
0.21448
0.211219
0.210536
0.213166
0.215491
0.250676
0.261111
0.273105
0.286697
0.644154
0.652054
0.789833
0.792526
0.386786
0.329869
0.315102
0.302395
0.291636
0.251342
0.255297
0.26057
0.275303
0.284883
0.295969
0.2179
0.217047
0.258237
0.268538
0.300539
0.271894
0.266525
0.238593
0.236227
0.233674
0.231019
0.228381
0.221437
0.219564
0.217916
0.214167
0.213318
0.213577
0.215045
0.217233
0.220252
0.251641
0.261969
0.273877
0.287408
0.652662
0.795766
0.390335
0.368992
0.317282
0.304186
0.293034
0.283662
0.26789