# vtk DataFile Version 1.0
Unstructured Grid Example
ASCII

DATASET UNSTRUCTURED_GRID
POINTS 961 float
275 471 0
282 471 0
263 470 0
266 470 0
279 470 0
296 470 0
300 470 0
303 470 0
284 469 0
287 469 0
256 468 0
260 468 0
270 468 0
273 468 0
306 468 0
290 467 0
296 467 0
299 467 0
251 466 0
293 466 0
309 466 0
246 464 0
299 464 0
302 464 0
311 463 0
242 462 0
320 462 0
237 461 0
230 460 0
313 460 0
322 460 0
325 458 0
224 457 0
322 457 0
315 456 0
219 455 0
328 455 0
324 454 0
213 453 0
327 452 0
208 451 0
319 451 0
332 451 0
203 450 0
340 450 0
322 449 0
329 449 0
198 448 0
325 448 0
333 447 0
194 445 0
335 445 0
329 444 0
332 444 0
190 443 0
337 443 0
343 442 0
185 440 0
339 439 0
343 439 0
335 438 0
180 437 0
344 436 0
176 435 0
173 434 0
336 434 0
341 434 0
345 432 0
171 431 0
342 430 0
345 429 0
350 427 0
168 426 0
342 426 0
345 426 0
345 423 0
166 422 0
348 422 0
348 419 0
163 418 0
347 416 0
161 414 0
161 411 0
347 411 0
161 408 0
348 408 0
346 405 0
158 404 0
155 400 0
346 400 0
153 398 0
258 398 0
347 397 0
151 396 0
242 396 0
245 396 0
249 396 0
252 396 0
255 396 0
232 395 0
258 395 0
261 395 0
226 394 0
237 394 0
240 394 0
265 394 0
268 394 0
345 394 0
218 393 0
223 393 0
229 393 0
252 393 0
149 392 0
270 392 0
278 391 0
345 391 0
222 390 0
268 390 0
273 390 0
216 389 0
276 389 0
281 389 0
149 388 0
213 388 0
285 388 0
290 387 0
343 387 0
293 386 0
298 386 0
148 385 0
210 385 0
214 385 0
302 384 0
342 384 0
305 383 0
345 383 0
146 382 0
208 382 0
212 382 0
310 380 0
347 380 0
143 379 0
205 378 0
315 378 0
351 378 0
312 377 0
342 377 0
354 377 0
339 376 0
199 375 0
203 375 0
316 374 0
142 373 0
354 373 0
199 372 0
317 371 0
349 371 0
196 370 0
320 370 0
356 370 0
143 369 0
200 369 0
353 368 0
350 367 0
198 366 0
320 366 0
357 365 0
142 364 0
198 363 0
201 363 0
354 363 0
360 363 0
204 362 0
351 362 0
322 361 0
207 360 0
357 360 0
143 359 0
361 359 0
353 357 0
322 356 0
207 355 0
356 354 0
361 354 0
143 353 0
323 353 0
357 351 0
207 350 0
322 350 0
360 350 0
210 348 0
215 347 0
218 346 0
321 345 0
361 345 0
144 344 0
185 343 0
192 343 0
202 343 0
195 342 0
199 342 0
221 342 0
189 341 0
204 341 0
320 341 0
178 340 0
181 340 0
208 340 0
221 339 0
361 339 0
183 338 0
210 338 0
143 337 0
172 337 0
317 337 0
214 336 0
221 336 0
175 335 0
178 335 0
272 334 0
277 334 0
173 333 0
181 333 0
216 333 0
223 333 0
269 333 0
281 333 0
361 333 0
140 332 0
220 332 0
167 331 0
171 331 0
176 331 0
189 331 0
193 331 0
144 330 0
183 330 0
186 330 0
196 330 0
265 330 0
317 330 0
169 329 0
174 329 0
200 329 0
284 329 0
178 328 0
360 328 0
141 327 0
166 327 0
204 327 0
207 327 0
263 327 0
273 327 0
288 327 0
315 327 0
145 326 0
171 326 0
269 326 0
357 326 0
175 325 0
178 325 0
266 325 0
276 325 0
279 325 0
282 325 0
291 325 0
143 324 0
164 324 0
169 324 0
210 324 0
296 324 0
360 324 0
284 323 0
315 323 0
141 322 0
167 322 0
188 322 0
192 322 0
195 322 0
146 321 0
175 321 0
185 321 0
198 321 0
212 321 0
287 321 0
291 321 0
138 320 0
178 320 0
201 320 0
222 320 0
359 320 0
170 319 0
181 319 0
214 319 0
218 319 0
296 319 0
316 319 0
135 318 0
184 318 0
205 318 0
226 318 0
293 318 0
140 317 0
165 317 0
216 317 0
145 316 0
207 316 0
224 316 0
135 315 0
164 314 0
141 313 0
208 313 0
222 313 0
225 313 0
316 313 0
356 313 0
134 312 0
144 312 0
161 311 0
209 310 0
270 310 0
273 310 0
134 309 0
224 309 0
264 309 0
267 309 0
277 309 0
159 308 0
212 308 0
215 308 0
260 308 0
280 308 0
284 308 0
317 308 0
352 307 0
157 306 0
210 306 0
220 306 0
248 306 0
257 306 0
224 305 0
245 305 0
253 305 0
262 305 0
287 305 0
135 304 0
214 304 0
283 304 0
153 303 0
156 303 0
209 303 0
218 303 0
251 303 0
260 303 0
264 303 0
132 302 0
138 302 0
244 302 0
248 302 0
279 302 0
288 302 0
215 301 0
224 301 0
262 301 0
268 301 0
273 301 0
250 300 0
317 300 0
139 299 0
155 299 0
220 299 0
243 299 0
253 299 0
278 299 0
281 299 0
288 299 0
133 298 0
213 298 0
258 298 0
261 298 0
349 298 0
218 297 0
246 297 0
249 297 0
264 297 0
267 297 0
138 296 0
151 296 0
156 296 0
215 296 0
272 296 0
276 295 0
290 295 0
316 295 0
135 294 0
146 294 0
153 294 0
209 294 0
219 294 0
281 294 0
212 293 0
215 293 0
207 292 0
285 292 0
135 291 0
152 291 0
218 291 0
290 291 0
215 290 0
347 290 0
211 289 0
315 289 0
136 288 0
150 288 0
206 288 0
215 287 0
202 286 0
136 285 0
144 285 0
213 285 0
150 284 0
211 283 0
313 283 0
152 282 0
201 282 0
345 282 0
146 281 0
147 281 0
135 280 0
198 280 0
207 280 0
148 279 0
151 279 0
311 279 0
205 278 0
145 277 0
341 277 0
134 276 0
148 276 0
311 275 0
141 274 0
134 273 0
149 273 0
337 273 0
144 272 0
139 271 0
147 271 0
310 271 0
134 270 0
201 270 0
328 270 0
332 270 0
143 268 0
193 268 0
197 268 0
205 268 0
325 268 0
133 267 0
200 267 0
309 267 0
148 266 0
189 266 0
322 266 0
146 264 0
180 264 0
185 264 0
206 264 0
149 263 0
177 263 0
308 263 0
173 262 0
132 261 0
208 261 0
231 261 0
319 261 0
168 260 0
225 260 0
228 260 0
234 260 0
307 260 0
148 259 0
165 259 0
205 259 0
317 259 0
320 258 0
223 257 0
232 257 0
307 257 0
313 257 0
323 257 0
132 256 0
165 256 0
205 256 0
227 256 0
316 256 0
148 255 0
221 255 0
321 255 0
207 254 0
305 254 0
130 253 0
165 253 0
312 253 0
205 252 0
309 252 0
149 251 0
162 251 0
223 251 0
231 251 0
305 251 0
320 251 0
324 251 0
207 250 0
217 250 0
312 250 0
129 249 0
171 249 0
179 249 0
182 249 0
225 249 0
228 249 0
150 248 0
162 248 0
190 248 0
194 248 0
203 248 0
215 248 0
233 248 0
318 248 0
174 247 0
185 247 0
199 247 0
223 247 0
305 247 0
170 246 0
180 246 0
188 246 0
217 246 0
220 246 0
231 246 0
236 246 0
309 246 0
312 246 0
315 246 0
128 245 0
149 245 0
162 245 0
205 245 0
152 244 0
165 244 0
168 244 0
175 244 0
182 244 0
238 244 0
304 244 0
185 243 0
229 243 0
190 242 0
220 242 0
240 242 0
243 242 0
127 241 0
151 241 0
173 241 0
187 241 0
193 241 0
225 241 0
301 241 0
160 240 0
178 240 0
181 240 0
222 240 0
246 240 0
191 239 0
171 238 0
224 238 0
299 238 0
128 237 0
152 237 0
248 237 0
177 236 0
195 236 0
230 236 0
171 235 0
227 235 0
235 235 0
232 234 0
249 234 0
152 233 0
179 232 0
206 232 0
235 232 0
238 232 0
126 231 0
171 231 0
253 231 0
181 230 0
151 229 0
184 229 0
187 229 0
239 229 0
256 228 0
126 227 0
172 227 0
241 227 0
188 226 0
191 226 0
229 226 0
151 225 0
253 225 0
195 224 0
243 224 0
146 223 0
234 223 0
149 222 0
197 222 0
128 221 0
152 221 0
172 221 0
200 221 0
203 221 0
244 221 0
238 220 0
252 220 0
206 219 0
246 219 0
290 219 0
152 218 0
213 218 0
235 218 0
129 217 0
210 217 0
216 217 0
248 217 0
251 217 0
278 217 0
175 216 0
219 216 0
239 216 0
275 216 0
289 216 0
225 215 0
230 215 0
253 215 0
153 214 0
233 214 0
270 214 0
273 214 0
286 214 0
130 213 0
238 213 0
251 213 0
279 213 0
292 213 0
267 212 0
283 212 0
176 211 0
296 211 0
131 209 0
152 209 0
179 209 0
236 209 0
281 209 0
262 208 0
265 208 0
277 208 0
295 208 0
233 207 0
259 207 0
181 206 0
185 206 0
291 206 0
188 205 0
132 204 0
152 204 0
232 204 0
288 204 0
257 203 0
193 202 0
228 202 0
285 202 0
196 201 0
253 201 0
153 200 0
225 200 0
281 200 0
133 199 0
200 199 0
429 198 0
204 197 0
218 197 0
222 197 0
209 196 0
252 196 0
279 196 0
132 195 0
214 195 0
153 194 0
252 193 0
275 193 0
130 190 0
194 190 0
251 190 0
256 190 0
190 188 0
273 188 0
157 187 0
187 187 0
194 186 0
248 186 0
269 186 0
126 184 0
189 184 0
239 184 0
242 184 0
246 184 0
77 183 0
81 183 0
159 183 0
194 183 0
267 183 0
73 182 0
85 182 0
119 181 0
242 181 0
245 181 0
69 180 0
90 180 0
114 180 0
189 180 0
64 179 0
103 179 0
160 179 0
263 179 0
99 178 0
107 178 0
60 177 0
94 177 0
164 177 0
186 177 0
234 177 0
240 177 0
56 176 0
28 175 0
35 175 0
168 175 0
184 175 0
189 175 0
238 175 0
258 175 0
181 174 0
242 174 0
43 173 0
51 173 0
173 173 0
186 173 0
232 173 0
20 172 0
47 172 0
176 172 0
179 172 0
191 172 0
254 172 0
0 171 0
6 171 0
10 171 0
15 171 0
188 171 0
228 171 0
181 170 0
231 170 0
191 169 0
251 168 0
137 167 0
196 167 0
221 167 0
226 167 0
130 166 0
133 166 0
140 166 0
192 166 0
217 166 0
212 165 0
183 164 0
186 164 0
195 164 0
199 164 0
125 163 0
130 163 0
134 163 0
139 163 0
143 163 0
247 163 0
202 162 0
207 161 0
122 160 0
125 159 0
143 159 0
244 159 0
122 156 0
146 155 0
244 155 0
116 153 0
120 153 0
112 150 0
241 150 0
413 150 0
108 149 0
149 149 0
106 146 0
151 146 0
236 146 0
412 146 0
156 144 0
230 144 0
159 143 0
105 142 0
109 142 0
164 142 0
169 142 0
224 142 0
116 141 0
228 141 0
410 141 0
158 140 0
172 140 0
220 140 0
176 139 0
101 138 0
108 138 0
217 138 0
181 137 0
206 137 0
210 137 0
117 136 0
121 136 0
184 135 0
200 135 0
213 135 0
106 134 0
110 134 0
127 134 0
193 134 0
203 134 0
187 133 0
114 132 0
131 132 0
190 132 0
198 132 0
136 131 0
141 131 0
110 130 0
107 128 0
148 128 0
152 127 0
156 126 0
160 125 0
165 124 0
169 123 0
252 123 0
173 122 0
258 122 0
177 121 0
182 120 0
255 120 0
186 118 0
189 117 0
263 117 0
193 116 0
252 116 0
269 116 0
198 115 0
203 114 0
206 112 0
179 111 0
248 111 0
275 111 0
210 109 0
182 108 0
245 107 0
279 106 0
240 104 0
282 103 0
210 102 0
236 101 0
231 100 0
209 99 0
227 98 0
285 98 0
397 98 0
223 96 0
208 95 0
288 95 0
102 94 0
220 93 0
396 93 0
291 91 0
206 90 0
217 90 0
213 88 0
293 88 0
207 87 0
297 86 0
205 83 0
301 83 0
393 83 0
304 79 0
204 74 0
308 73 0
388 72 0
313 69 0
388 68 0
200 67 0
318 65 0
321 62 0
325 61 0
329 61 0
199 60 0
331 57 0
197 54 0
334 54 0
342 53 0
338 52 0
197 49 0
345 49 0
380 49 0
346 45 0
380 44 0
349 42 0
379 39 0
348 36 0
193 35 0
376 31 0
350 30 0
189 28 0
193 28 0
186 26 0
373 26 0
196 25 0
353 24 0
197 22 0
374 22 0
184 21 0
355 20 0
200 18 0
370 16 0
202 15 0
182 14 0
357 14 0
370 12 0
182 10 0
204 10 0
357 9 0
369 8 0
183 6 0
199 6 0
206 6 0
358 4 0
206 3 0
368 3 0
185 2 0
CELLS 961 1922
1 0
1 1
1 2
1 3
1 4
1 5
1 6
1 7
1 8
1 9
1 10
1 11
1 12
1 13
1 14
1 15
1 16
1 17
1 18
1 19
1 20
1 21
1 22
1 23
1 24
1 25
1 26
1 27
1 28
1 29
1 30
1 31
1 32
1 33
1 34
1 35
1 36
1 37
1 38
1 39
1 40
1 41
1 42
1 43
1 44
1 45
1 46
1 47
1 48
1 49
1 50
1 51
1 52
1 53
1 54
1 55
1 56
1 57
1 58
1 59
1 60
1 61
1 62
1 63
1 64
1 65
1 66
1 67
1 68
1 69
1 70
1 71
1 72
1 73
1 74
1 75
1 76
1 77
1 78
1 79
1 80
1 81
1 82
1 83
1 84
1 85
1 86
1 87
1 88
1 89
1 90
1 91
1 92
1 93
1 94
1 95
1 96
1 97
1 98
1 99
1 100
1 101
1 102
1 103
1 104
1 105
1 106
1 107
1 108
1 109
1 110
1 111
1 112
1 113
1 114
1 115
1 116
1 117
1 118
1 119
1 120
1 121
1 122
1 123
1 124
1 125
1 126
1 127
1 128
1 129
1 130
1 131
1 132
1 133
1 134
1 135
1 136
1 137
1 138
1 139
1 140
1 141
1 142
1 143
1 144
1 145
1 146
1 147
1 148
1 149
1 150
1 151
1 152
1 153
1 154
1 155
1 156
1 157
1 158
1 159
1 160
1 161
1 162
1 163
1 164
1 165
1 166
1 167
1 168
1 169
1 170
1 171
1 172
1 173
1 174
1 175
1 176
1 177
1 178
1 179
1 180
1 181
1 182
1 183
1 184
1 185
1 186
1 187
1 188
1 189
1 190
1 191
1 192
1 193
1 194
1 195
1 196
1 197
1 198
1 199
1 200
1 201
1 202
1 203
1 204
1 205
1 206
1 207
1 208
1 209
1 210
1 211
1 212
1 213
1 214
1 215
1 216
1 217
1 218
1 219
1 220
1 221
1 222
1 223
1 224
1 225
1 226
1 227
1 228
1 229
1 230
1 231
1 232
1 233
1 234
1 235
1 236
1 237
1 238
1 239
1 240
1 241
1 242
1 243
1 244
1 245
1 246
1 247
1 248
1 249
1 250
1 251
1 252
1 253
1 254
1 255
1 256
1 257
1 258
1 259
1 260
1 261
1 262
1 263
1 264
1 265
1 266
1 267
1 268
1 269
1 270
1 271
1 272
1 273
1 274
1 275
1 276
1 277
1 278
1 279
1 280
1 281
1 282
1 283
1 284
1 285
1 286
1 287
1 288
1 289
1 290
1 291
1 292
1 293
1 294
1 295
1 296
1 297
1 298
1 299
1 300
1 301
1 302
1 303
1 304
1 305
1 306
1 307
1 308
1 309
1 310
1 311
1 312
1 313
1 314
1 315
1 316
1 317
1 318
1 319
1 320
1 321
1 322
1 323
1 324
1 325
1 326
1 327
1 328
1 329
1 330
1 331
1 332
1 333
1 334
1 335
1 336
1 337
1 338
1 339
1 340
1 341
1 342
1 343
1 344
1 345
1 346
1 347
1 348
1 349
1 350
1 351
1 352
1 353
1 354
1 355
1 356
1 357
1 358
1 359
1 360
1 361
1 362
1 363
1 364
1 365
1 366
1 367
1 368
1 369
1 370
1 371
1 372
1 373
1 374
1 375
1 376
1 377
1 378
1 379
1 380
1 381
1 382
1 383
1 384
1 385
1 386
1 387
1 388
1 389
1 390
1 391
1 392
1 393
1 394
1 395
1 396
1 397
1 398
1 399
1 400
1 401
1 402
1 403
1 404
1 405
1 406
1 407
1 408
1 409
1 410
1 411
1 412
1 413
1 414
1 415
1 416
1 417
1 418
1 419
1 420
1 421
1 422
1 423
1 424
1 425
1 426
1 427
1 428
1 429
1 430
1 431
1 432
1 433
1 434
1 435
1 436
1 437
1 438
1 439
1 440
1 441
1 442
1 443
1 444
1 445
1 446
1 447
1 448
1 449
1 450
1 451
1 452
1 453
1 454
1 455
1 456
1 457
1 458
1 459
1 460
1 461
1 462
1 463
1 464
1 465
1 466
1 467
1 468
1 469
1 470
1 471
1 472
1 473
1 474
1 475
1 476
1 477
1 478
1 479
1 480
1 481
1 482
1 483
1 484
1 485
1 486
1 487
1 488
1 489
1 490
1 491
1 492
1 493
1 494
1 495
1 496
1 497
1 498
1 499
1 500
1 501
1 502
1 503
1 504
1 505
1 506
1 507
1 508
1 509
1 510
1 511
1 512
1 513
1 514
1 515
1 516
1 517
1 518
1 519
1 520
1 521
1 522
1 523
1 524
1 525
1 526
1 527
1 528
1 529
1 530
1 531
1 532
1 533
1 534
1 535
1 536
1 537
1 538
1 539
1 540
1 541
1 542
1 543
1 544
1 545
1 546
1 547
1 548
1 549
1 550
1 551
1 552
1 553
1 554
1 555
1 556
1 557
1 558
1 559
1 560
1 561
1 562
1 563
1 564
1 565
1 566
1 567
1 568
1 569
1 570
1 571
1 572
1 573
1 574
1 575
1 576
1 577
1 578
1 579
1 580
1 581
1 582
1 583
1 584
1 585
1 586
1 587
1 588
1 589
1 590
1 591
1 592
1 593
1 594
1 595
1 596
1 597
1 598
1 599
1 600
1 601
1 602
1 603
1 604
1 605
1 606
1 607
1 608
1 609
1 610
1 611
1 612
1 613
1 614
1 615
1 616
1 617
1 618
1 619
1 620
1 621
1 622
1 623
1 624
1 625
1 626
1 627
1 628
1 629
1 630
1 631
1 632
1 633
1 634
1 635
1 636
1 637
1 638
1 639
1 640
1 641
1 642
1 643
1 644
1 645
1 646
1 647
1 648
1 649
1 650
1 651
1 652
1 653
1 654
1 655
1 656
1 657
1 658
1 659
1 660
1 661
1 662
1 663
1 664
1 665
1 666
1 667
1 668
1 669
1 670
1 671
1 672
1 673
1 674
1 675
1 676
1 677
1 678
1 679
1 680
1 681
1 682
1 683
1 684
1 685
1 686
1 687
1 688
1 689
1 690
1 691
1 692
1 693
1 694
1 695
1 696
1 697
1 698
1 699
1 700
1 701
1 702
1 703
1 704
1 705
1 706
1 707
1 708
1 709
1 710
1 711
1 712
1 713
1 714
1 715
1 716
1 717
1 718
1 719
1 720
1 721
1 722
1 723
1 724
1 725
1 726
1 727
1 728
1 729
1 730
1 731
1 732
1 733
1 734
1 735
1 736
1 737
1 738
1 739
1 740
1 741
1 742
1 743
1 744
1 745
1 746
1 747
1 748
1 749
1 750
1 751
1 752
1 753
1 754
1 755
1 756
1 757
1 758
1 759
1 760
1 761
1 762
1 763
1 764
1 765
1 766
1 767
1 768
1 769
1 770
1 771
1 772
1 773
1 774
1 775
1 776
1 777
1 778
1 779
1 780
1 781
1 782
1 783
1 784
1 785
1 786
1 787
1 788
1 789
1 790
1 791
1 792
1 793
1 794
1 795
1 796
1 797
1 798
1 799
1 800
1 801
1 802
1 803
1 804
1 805
1 806
1 807
1 808
1 809
1 810
1 811
1 812
1 813
1 814
1 815
1 816
1 817
1 818
1 819
1 820
1 821
1 822
1 823
1 824
1 825
1 826
1 827
1 828
1 829
1 830
1 831
1 832
1 833
1 834
1 835
1 836
1 837
1 838
1 839
1 840
1 841
1 842
1 843
1 844
1 845
1 846
1 847
1 848
1 849
1 850
1 851
1 852
1 853
1 854
1 855
1 856
1 857
1 858
1 859
1 860
1 861
1 862
1 863
1 864
1 865
1 866
1 867
1 868
1 869
1 870
1 871
1 872
1 873
1 874
1 875
1 876
1 877
1 878
1 879
1 880
1 881
1 882
1 883
1 884
1 885
1 886
1 887
1 888
1 889
1 890
1 891
1 892
1 893
1 894
1 895
1 896
1 897
1 898
1 899
1 900
1 901
1 902
1 903
1 904
1 905
1 906
1 907
1 908
1 909
1 910
1 911
1 912
1 913
1 914
1 915
1 916
1 917
1 918
1 919
1 920
1 921
1 922
1 923
1 924
1 925
1 926
1 927
1 928
1 929
1 930
1 931
1 932
1 933
1 934
1 935
1 936
1 937
1 938
1 939
1 940
1 941
1 942
1 943
1 944
1 945
1 946
1 947
1 948
1 949
1 950
1 951
1 952
1 953
1 954
1 955
1 956
1 957
1 958
1 959
1 960
CELL_TYPES 961
1 1 1 1 1 1 1 1 1 1 1 1 1 1 1 1 1 1 1 1 1 1 1 1 1 1 1 1 1 1 1 1 1 1 1 1 1 1 1 1 1 1 1 1 1 1 1 1 1 1 1 1 1 1 1 1 1 1 1 1 1 1 1 1 1 1 1 1 1 1 1 1 1 1 1 1 1 1 1 1 1 1 1 1 1 1 1 1 1 1 1 1 1 1 1 1 1 1 1 1 1 1 1 1 1 1 1 1 1 1 1 1 1 1 1 1 1 1 1 1 1 1 1 1 1 1 1 1 1 1 1 1 1 1 1 1 1 1 1 1 1 1 1 1 1 1 1 1 1 1 1 1 1 1 1 1 1 1 1 1 1 1 1 1 1 1 1 1 1 1 1 1 1 1 1 1 1 1 1 1 1 1 1 1 1 1 1 1 1 1 1 1 1 1 1 1 1 1 1 1 1 1 1 1 1 1 1 1 1 1 1 1 1 1 1 1 1 1 1 1 1 1 1 1 1 1 1 1 1 1 1 1 1 1 1 1 1 1 1 1 1 1 1 1 1 1 1 1 1 1 1 1 1 1 1 1 1 1 1 1 1 1 1 1 1 1 1 1 1 1 1 1 1 1 1 1 1 1 1 1 1 1 1 1 1 1 1 1 1 1 1 1 1 1 1 1 1 1 1 1 1 1 1 1 1 1 1 1 1 1 1 1 1 1 1 1 1 1 1 1 1 1 1 1 1 1 1 1 1 1 1 1 1 1 1 1 1 1 1 1 1 1 1 1 1 1 1 1 1 1 1 1 1 1 1 1 1 1 1 1 1 1 1 1 1 1 1 1 1 1 1 1 1 1 1 1 1 1 1 1 1 1 1 1 1 1 1 1 1 1 1 1 1 1 1 1 1 1 1 1 1 1 1 1 1 1 1 1 1 1 1 1 1 1 1 1 1 1 1 1 1 1 1 1 1 1 1 1 1 1 1 1 1 1 1 1 1 1 1 1 1 1 1 1 1 1 1 1 1 1 1 1 1 1 1 1 1 1 1 1 1 1 1 1 1 1 1 1 1 1 1 1 1 1 1 1 1 1 1 1 1 1 1 1 1 1 1 1 1 1 1 1 1 1 1 1 1 1 1 1 1 1 1 1 1 1 1 1 1 1 1 1 1 1 1 1 1 1 1 1 1 1 1 1 1 1 1 1 1 1 1 1 1 1 1 1 1 1 1 1 1 1 1 1 1 1 1 1 1 1 1 1 1 1 1 1 1 1 1 1 1 1 1 1 1 1 1 1 1 1 1 1 1 1 1 1 1 1 1 1 1 1 1 1 1 1 1 1 1 1 1 1 1 1 1 1 1 1 1 1 1 1 1 1 1 1 1 1 1 1 1 1 1 1 1 1 1 1 1 1 1 1 1 1 1 1 1 1 1 1 1 1 1 1 1 1 1 1 1 1 1 1 1 1 1 1 1 1 1 1 1 1 1 1 1 1 1 1 1 1 1 1 1 1 1 1 1 1 1 1 1 1 1 1 1 1 1 1 1 1 1 1 1 1 1 1 1 1 1 1 1 1 1 1 1 1 1 1 1 1 1 1 1 1 1 1 1 1 1 1 1 1 1 1 1 1 1 1 1 1 1 1 1 1 1 1 1 1 1 1 1 1 1 1 1 1 1 1 1 1 1 1 1 1 1 1 1 1 1 1 1 1 1 1 1 1 1 1 1 1 1 1 1 1 1 1 1 1 1 1 1 1 1 1 1 1 1 1 1 1 1 1 1 1 1 1 1 1 1 1 1 1 1 1 1 1 1 1 1 1 1 1 1 1 1 1 1 1 1 1 1 1 1 1 1 1 1 1 1 1 1 1 1 1 1 1 1 1 1 1 1 1 1 1 1 1 1 1 1 1 1 1 1 1 1 1 1 1 1 1 1 1 1 1 1 1 1 1 1 1 1 1 1 1 1 1 1 1 1 1 1 1 1 1 1 1 1 1 1 1 1 1 1 1 1 1 1 1 1 1 1 1 1 1 1 1 1 1 1 1 1 1 1 1 1 1 1 1 1 1 1 1 1 1 1 1 1 1 1 1 1 1 1 1 1 1 1 1 1 1 1 1 1 1 1 1 1 1 1 1 1 1 1 1 1 1 1 1 1 1 1 1 1 1 1 1 1 1 1 1 1 
CELL_DATA 961
COLOR_SCALARS lut 1
0.249511
0.268489
0.312318
0.28382
0.270262
0.231288
0.217784
0.21611
0.29138
0.285329
0.423342
0.375404
0.288193
0.283849
0.231874
0.296647
0.26146
0.247195
0.501584
0.293317
0.249432
0.565973
0.289723
0.275055
0.267361
0.616489
0.289477
0.64932
0.689244
0.280941
0.291241
0.298277
0.748882
0.280191
0.297744
0.787448
0.296283
0.279518
0.813263
0.281125
0.805857
0.312256
0.286185
0.746723
0.328738
0.310135
0.280515
0.642972
0.300171
0.274531
0.543487
0.271778
0.304679
0.282945
0.455708
0.271609
0.311341
0.379428
0.276296
0.300661
0.293936
0.327727
0.303471
0.304485
0.299631
0.312259
0.285857
0.305582
0.297549
0.295658
0.30524
0.36708
0.297588
0.312097
0.310001
0.317032
0.297948
0.335649
0.335305
0.298751
0.326904
0.301654
0.303524
0.309969
0.308355
0.301055
0.293218
0.29766
0.288866
0.30057
0.28565
0.266208
0.314012
0.285184
0.287503
0.276742
0.262383
0.253622
0.248566
0.337038
0.24354
0.245471
0.365345
0.306379
0.292945
0.250037
0.260924
0.320416
0.390644
0.372916
0.347837
0.256712
0.284634
0.262309
0.283237
0.320002
0.36408
0.263881
0.273503
0.350154
0.28029
0.279786
0.286726
0.340372
0.28267
0.29411
0.308282
0.305647
0.336509
0.29456
0.316895
0.325898
0.351052
0.298132
0.360362
0.284101
0.30915
0.299583
0.312105
0.35534
0.277295
0.343038
0.285489
0.340772
0.300077
0.344888
0.29038
0.336534
0.319523
0.300625
0.279285
0.331536
0.430188
0.31476
0.289609
0.337464
0.28828
0.320065
0.336338
0.327987
0.508161
0.282105
0.300679
0.305039
0.302805
0.356006
0.328893
0.627178
0.313957
0.289588
0.313909
0.366766
0.285047
0.327323
0.375022
0.294791
0.331225
0.718184
0.378498
0.343149
0.37187
0.289549
0.349489
0.378515
0.747526
0.370138
0.363503
0.278232
0.365878
0.37525
0.275604
0.303087
0.328101
0.36539
0.402843
0.601003
0.319698
0.307406
0.27107
0.291869
0.279175
0.333144
0.28923
0.25784
0.372538
0.301392
0.286178
0.248287
0.310667
0.432647
0.257415
0.24448
0.439489
0.305104
0.385007
0.245903
0.294771
0.253037
0.238135
0.332401
0.330305
0.246825
0.218956
0.246531
0.311869
0.331879
0.326809
0.430555
0.373656
0.271682
0.278522
0.244824
0.218714
0.226912
0.235101
0.319556
0.211012
0.21741
0.235562
0.334301
0.43509
0.246323
0.219254
0.232741
0.286077
0.208377
0.416767
0.301427
0.258275
0.224794
0.221875
0.338751
0.262163
0.289089
0.454289
0.280004
0.226149
0.275741
0.419025
0.216278
0.213534
0.296684
0.251888
0.249506
0.251039
0.295412
0.267146
0.262653
0.234153
0.213771
0.338478
0.434522
0.24947
0.487084
0.263704
0.244974
0.24609
0.251126
0.249285
0.254877
0.237093
0.248463
0.248125
0.20771
0.256314
0.279601
0.279127
0.248192
0.241131
0.250256
0.476654
0.253962
0.264096
0.206106
0.217659
0.332779
0.527787
0.310766
0.283717
0.22797
0.292792
0.302039
0.251098
0.270887
0.207289
0.24337
0.223122
0.259115
0.299475
0.289267
0.246053
0.226371
0.233412
0.264708
0.579323
0.611123
0.312213
0.244909
0.295274
0.227315
0.231737
0.228496
0.316332
0.248339
0.241792
0.231906
0.223477
0.291854
0.213036
0.205898
0.251388
0.224121
0.240973
0.62785
0.733381
0.280452
0.228381
0.218697
0.283807
0.24863
0.251705
0.297259
0.255153
0.229302
0.2617
0.319131
0.212099
0.227859
0.257118
0.273919
0.242836
0.216415
0.255791
0.23312
0.222388
0.382607
0.289665
0.298314
0.269818
0.213166
0.273105
0.217047
0.268538
0.233674
0.219564
0.213318
0.266418
0.652272
0.284088
0.269005
0.243825
0.320205
0.264303
0.221784
0.227114
0.277491
0.373126
0.226927
0.266662
0.260757
0.801496
0.24185
0.315942
0.298049
0.264829
0.255838
0.292687
0.245377
0.286678
0.233868
0.25574
0.260627
0.320997
0.627459
0.332778
0.239622
0.260267
0.248432
0.269128
0.270646
0.240254
0.247219
0.261629
0.307086
0.32547
0.258588
0.282263
0.35761
0.263894
0.763802
0.25072
0.573224
0.300416
0.248311
0.263539
0.285798
0.296659
0.291517
0.231946
0.283364
0.25494
0.280774
0.501798
0.283747
0.293581
0.656541
0.232313
0.236508
0.293045
0.321696
0.273088
0.244909
0.276902
0.46277
0.273792
0.231057
0.540239
0.300658
0.24771
0.419131
0.23696
0.300497
0.259751
0.455012
0.235861
0.255389
0.247338
0.383696
0.308395
0.264256
0.352107
0.385592
0.253218
0.293471
0.268447
0.268284
0.323933
0.338368
0.256647
0.352124
0.268483
0.31415
0.301052
0.274416
0.370818
0.335256
0.259744
0.284998
0.371525
0.325359
0.366305
0.399817
0.25633
0.335399
0.267676
0.342217
0.285245
0.296618
0.360357
0.313946
0.302712
0.331439
0.24214
0.255949
0.264799
0.249389
0.296109
0.296461
0.252447
0.291124
0.442022
0.30186
0.235256
0.247232
0.249242
0.318999
0.234602
0.275656
0.231442
0.315635
0.484313
0.273298
0.255479
0.226697
0.272339
0.315898
0.264823
0.210903
0.239467
0.315341
0.291345
0.33884
0.226301
0.222901
0.270043
0.507127
0.230197
0.231682
0.233546
0.205183
0.211849
0.303324
0.244806
0.223137
0.222136
0.222728
0.22889
0.242584
0.309577
0.213594
0.218372
0.22047
0.204833
0.329782
0.212003
0.209644
0.212882
0.22723
0.215159
0.219147
0.263883
0.312548
0.310785
0.320355
0.514916
0.309248
0.233331
0.232126
0.281683
0.220407
0.210475
0.198209
0.20188
0.273983
0.362243
0.201757
0.208562
0.205603
0.233114
0.282239
0.31958
0.514623
0.291185
0.196238
0.202459
0.211216
0.216151
0.421271
0.245919
0.193474
0.195807
0.235
0.33685
0.210892
0.208071
0.235951
0.470296
0.495374
0.291047
0.326953
0.203802
0.229945
0.21972
0.222536
0.233869
0.219325
0.218391
0.305487
0.299212
0.222368
0.296284
0.214908
0.218699
0.519804
0.249665
0.320956
0.233304
0.304132
0.237791
0.237129
0.212317
0.328943
0.529487
0.279245
0.211282
0.252765
0.251965
0.241408
0.302057
0.268314
0.266219
0.209198
0.340479
0.210354
0.314455
0.280158
0.520266
0.30632
0.341884
0.29314
0.303547
0.208444
0.201539
0.240862
0.327004
0.214803
0.35483
0.316604
0.361917
0.212374
0.52408
0.359178
0.364248
0.223367
0.233969
0.301503
0.376384
0.354412
0.212596
0.291279
0.309781
0.303423
0.254868
0.244304
0.338214
0.239661
0.282327
0.276189
0.278504
0.531456
0.23053
0.24108
0.260127
0.309144
0.274335
0.258389
0.402993
0.358023
0.538874
0.378205
0.386699
0.267125
0.249338
0.264098
0.267559
0.25119
0.353773
0.298202
0.260193
0.379561
0.343946
0.316721
0.325933
0.547179
0.434929
0.332445
0.306879
0.260758
0.318978
0.37641
0.303652
0.330357
0.261238
0.478901
0.413341
0.298718
0.551504
0.36247
0.579519
0.406615
0.469559
0.453132
0.457125
0.261777
0.327609
0.553407
0.48676
0.517773
0.258938
0.33761
0.53756
0.339847
0.256723
0.271755
0.321677
0.384866
0.487973
0.321527
0.333923
0.255208
0.382384
0.496071
0.29652
0.292217
0.26968
0.25546
0.545208
0.540773
0.44039
0.323622
0.401003
0.571551
0.557083
0.482523
0.260648
0.255616
0.608121
0.587737
0.479687
0.270254
0.633435
0.517301
0.402856
0.406167
0.557168
0.483885
0.608941
0.598067
0.369199
0.248133
0.297815
0.264237
0.562342
0.78837
0.732114
0.337228
0.241582
0.246506
0.272199
0.39096
0.249404
0.272178
0.580151
0.521821
0.299215
0.234992
0.301545
0.7054
0.534277
0.278862
0.258872
0.253184
0.373445
0.299457
0.41239
0.502925
0.614258
0.238649
0.329071
0.253425
0.310525
0.256806
0.382209
0.352392
0.304881
0.396088
0.351064
0.335364
0.335123
0.363287
0.278482
0.431826
0.442089
0.297993
0.287004
0.31446
0.347239
0.340579
0.326905
0.330664
0.348305
0.374918
0.395386
0.385146
0.428341
0.352942
0.340704
0.383087
0.405856
0.352312
0.417992
0.424085
0.355267
0.354128
0.342232
0.407041
0.554863
0.355194
0.424204
0.343065
0.404894
0.393479
0.507633
0.373132
0.397063
0.366198
0.329349
0.29798
0.381228
0.414248
0.432596
0.308155
0.414638
0.512353
0.361944
0.41724
0.452617
0.416023
0.39924
0.307308
0.448442
0.391258
0.37625
0.394933
0.327134
0.365973
0.367503
0.3661
0.42103
0.365052
0.335178
0.461519
0.356321
0.365384
0.350863
0.362479
0.524008
0.348378
0.365226
0.549264
0.522853
0.408614
0.480697
0.4895
0.469929
0.459191
0.455841
0.448728
0.434548
0.429153
0.408523
0.44825
0.378388
0.352399
0.424825
0.354743
0.367544
0.500639
0.388287
0.459538
0.599956
0.399724
0.38851
0.379254
0.437268
0.570451
0.63127
0.382192
0.462137
0.664472
0.567459
0.722834
0.521015
0.366406
0.727356
0.661088
0.355827
0.589873
0.474862
0.684983
0.511334
0.345353
0.468296
1
0.464692
0.576158
0.468349
0.355173
0.431523
0.388505
0.474016
0.363053
0.488773
0.397357
0.521937
0.476324
0.537436
0.510461
0.514208
0.523854
0.503852
0.567504
0.640508
0.506157
0.50135
0.475622
0.458491
0.692644
0.443735
0.634894
0.43139
0.399486
0.406664
0.565105
0.387643
0.676704
0.384187
0.705911
0.394707
0.71246
0.414464
0.410737
0.655703
0.464291
0.367778
0.360846
0.386145
0.581988
0.372055
0.485804
0.372117
0.552749
0.390294
0.463294
0.375661
0.437407
0.363193
0.371866
0.39601
0.384103
0.3338
0.314954
0.33286
0.319159
0.278019
0.23215
0.280519
0.258353
0.24004
0.2447
0.219354
