# vtk DataFile Version 1.0
Unstructured Grid Example
ASCII

DATASET UNSTRUCTURED_GRID
POINTS 6259 float
0 486 0
3 486 0
8 486 0
11 486 0
16 486 0
21 486 0
25 486 0
30 486 0
34 486 0
37 486 0
40 486 0
43 486 0
48 486 0
53 486 0
56 486 0
59 486 0
62 486 0
67 486 0
71 486 0
75 486 0
80 486 0
85 486 0
88 486 0
91 486 0
95 486 0
98 486 0
103 486 0
107 486 0
110 486 0
113 486 0
116 486 0
120 486 0
125 486 0
129 486 0
133 486 0
136 486 0
139 486 0
142 486 0
147 486 0
150 486 0
153 486 0
156 486 0
160 486 0
164 486 0
168 486 0
173 486 0
177 486 0
180 486 0
185 486 0
190 486 0
195 486 0
198 486 0
201 486 0
206 486 0
210 486 0
214 486 0
217 486 0
220 486 0
224 486 0
227 486 0
230 486 0
233 486 0
237 486 0
240 486 0
245 486 0
248 486 0
251 486 0
255 486 0
258 486 0
261 486 0
264 486 0
268 486 0
271 486 0
274 486 0
277 486 0
280 486 0
283 486 0
287 486 0
292 486 0
295 486 0
300 486 0
303 486 0
306 486 0
309 486 0
314 486 0
318 486 0
322 486 0
326 486 0
330 486 0
334 486 0
337 486 0
341 486 0
344 486 0
347 486 0
352 486 0
356 486 0
359 486 0
362 486 0
365 486 0
368 486 0
371 486 0
375 486 0
379 486 0
384 486 0
388 486 0
391 486 0
395 486 0
398 486 0
401 486 0
404 486 0
409 486 0
412 486 0
416 486 0
419 486 0
423 486 0
427 486 0
430 486 0
435 486 0
440 486 0
253 485 0
289 485 0
298 485 0
311 485 0
316 485 0
328 485 0
332 485 0
442 485 0
6 484 0
14 484 0
18 484 0
46 484 0
50 484 0
183 484 0
204 484 0
242 484 0
265 484 0
269 484 0
275 484 0
285 484 0
291 484 0
296 484 0
301 484 0
307 484 0
320 484 0
386 484 0
406 484 0
421 484 0
425 484 0
432 484 0
437 484 0
3 483 0
9 483 0
22 483 0
25 483 0
30 483 0
37 483 0
40 483 0
59 483 0
63 483 0
69 483 0
79 483 0
84 483 0
90 483 0
93 483 0
101 483 0
104 483 0
109 483 0
115 483 0
122 483 0
125 483 0
134 483 0
137 483 0
142 483 0
160 483 0
164 483 0
169 483 0
173 483 0
176 483 0
179 483 0
197 483 0
207 483 0
219 483 0
222 483 0
227 483 0
230 483 0
233 483 0
237 483 0
248 483 0
251 483 0
255 483 0
260 483 0
267 483 0
272 483 0
283 483 0
293 483 0
304 483 0
309 483 0
313 483 0
326 483 0
347 483 0
354 483 0
366 483 0
372 483 0
377 483 0
383 483 0
389 483 0
403 483 0
415 483 0
418 483 0
428 483 0
0 482 0
44 482 0
48 482 0
66 482 0
72 482 0
76 482 0
87 482 0
112 482 0
118 482 0
130 482 0
145 482 0
149 482 0
153 482 0
157 482 0
188 482 0
191 482 0
194 482 0
200 482 0
211 482 0
240 482 0
270 482 0
274 482 0
277 482 0
280 482 0
289 482 0
323 482 0
329 482 0
333 482 0
338 482 0
342 482 0
350 482 0
362 482 0
380 482 0
393 482 0
397 482 0
409 482 0
423 482 0
434 482 0
440 482 0
20 481 0
34 481 0
55 481 0
61 481 0
82 481 0
97 481 0
107 481 0
171 481 0
183 481 0
205 481 0
214 481 0
217 481 0
225 481 0
243 481 0
246 481 0
257 481 0
262 481 0
285 481 0
296 481 0
299 481 0
302 481 0
307 481 0
320 481 0
345 481 0
358 481 0
368 481 0
375 481 0
387 481 0
400 481 0
405 481 0
412 481 0
430 481 0
437 481 0
4 480 0
16 480 0
30 480 0
50 480 0
93 480 0
100 480 0
103 480 0
116 480 0
120 480 0
137 480 0
141 480 0
155 480 0
159 480 0
168 480 0
178 480 0
198 480 0
237 480 0
250 480 0
268 480 0
316 480 0
325 480 0
353 480 0
384 480 0
391 480 0
395 480 0
418 480 0
442 480 0
0 479 0
8 479 0
12 479 0
24 479 0
37 479 0
44 479 0
65 479 0
68 479 0
73 479 0
78 479 0
113 479 0
129 479 0
145 479 0
151 479 0
163 479 0
190 479 0
194 479 0
202 479 0
208 479 0
221 479 0
230 479 0
233 479 0
255 479 0
264 479 0
273 479 0
281 479 0
289 479 0
293 479 0
305 479 0
310 479 0
313 479 0
328 479 0
331 479 0
337 479 0
340 479 0
350 479 0
362 479 0
371 479 0
381 479 0
415 479 0
421 479 0
426 479 0
433 479 0
439 479 0
27 478 0
40 478 0
47 478 0
58 478 0
62 478 0
85 478 0
109 478 0
124 478 0
148 478 0
173 478 0
182 478 0
211 478 0
227 478 0
243 478 0
276 478 0
285 478 0
302 478 0
334 478 0
343 478 0
359 478 0
365 478 0
377 478 0
388 478 0
406 478 0
436 478 0
19 477 0
89 477 0
98 477 0
132 477 0
186 477 0
218 477 0
240 477 0
249 477 0
252 477 0
260 477 0
268 477 0
279 477 0
297 477 0
315 477 0
318 477 0
321 477 0
325 477 0
346 477 0
399 477 0
430 477 0
4 476 0
32 476 0
55 476 0
70 476 0
75 476 0
80 476 0
102 476 0
106 476 0
121 476 0
127 476 0
136 476 0
153 476 0
157 476 0
167 476 0
197 476 0
206 476 0
271 476 0
289 476 0
304 476 0
307 476 0
310 476 0
328 476 0
369 476 0
373 476 0
394 476 0
409 476 0
417 476 0
442 476 0
0 475 0
8 475 0
43 475 0
50 475 0
95 475 0
143 475 0
161 475 0
175 475 0
179 475 0
189 475 0
229 475 0
246 475 0
257 475 0
262 475 0
265 475 0
276 475 0
285 475 0
313 475 0
332 475 0
337 475 0
349 475 0
355 475 0
422 475 0
12 474 0
37 474 0
64 474 0
85 474 0
110 474 0
139 474 0
148 474 0
184 474 0
214 474 0
237 474 0
254 474 0
269 474 0
282 474 0
292 474 0
295 474 0
299 474 0
320 474 0
325 474 0
360 474 0
364 474 0
377 474 0
382 474 0
387 474 0
404 474 0
413 474 0
24 473 0
59 473 0
91 473 0
116 473 0
172 473 0
200 473 0
225 473 0
233 473 0
279 473 0
302 473 0
305 473 0
310 473 0
315 473 0
341 473 0
426 473 0
439 473 0
28 472 0
69 472 0
75 472 0
130 472 0
164 472 0
192 472 0
196 472 0
207 472 0
221 472 0
241 472 0
249 472 0
272 472 0
285 472 0
288 472 0
369 472 0
392 472 0
408 472 0
0 471 0
7 471 0
18 471 0
42 471 0
82 471 0
107 471 0
120 471 0
168 471 0
177 471 0
188 471 0
217 471 0
229 471 0
258 471 0
269 471 0
275 471 0
282 471 0
291 471 0
307 471 0
317 471 0
328 471 0
333 471 0
356 471 0
373 471 0
433 471 0
35 470 0
62 470 0
125 470 0
134 470 0
149 470 0
184 470 0
253 470 0
263 470 0
266 470 0
279 470 0
296 470 0
300 470 0
303 470 0
311 470 0
323 470 0
339 470 0
345 470 0
350 470 0
360 470 0
384 470 0
402 470 0
421 470 0
442 470 0
47 469 0
52 469 0
89 469 0
100 469 0
139 469 0
144 469 0
155 469 0
160 469 0
173 469 0
202 469 0
233 469 0
284 469 0
287 469 0
293 469 0
315 469 0
320 469 0
397 469 0
438 469 0
111 468 0
246 468 0
256 468 0
260 468 0
270 468 0
273 468 0
276 468 0
306 468 0
331 468 0
389 468 0
69 467 0
95 467 0
129 467 0
166 467 0
210 467 0
222 467 0
227 467 0
237 467 0
241 467 0
266 467 0
281 467 0
290 467 0
296 467 0
299 467 0
327 467 0
355 467 0
407 467 0
429 467 0
0 466 0
7 466 0
16 466 0
42 466 0
74 466 0
117 466 0
190 466 0
195 466 0
215 466 0
251 466 0
293 466 0
304 466 0
309 466 0
313 466 0
317 466 0
334 466 0
341 466 0
350 466 0
367 466 0
376 466 0
413 466 0
57 465 0
105 465 0
122 465 0
175 465 0
185 465 0
205 465 0
231 465 0
277 465 0
284 465 0
320 465 0
346 465 0
381 465 0
22 464 0
82 464 0
154 464 0
180 464 0
200 464 0
246 464 0
262 464 0
270 464 0
299 464 0
302 464 0
307 464 0
331 464 0
337 464 0
442 464 0
138 463 0
162 463 0
219 463 0
224 463 0
287 463 0
294 463 0
311 463 0
315 463 0
324 463 0
363 463 0
401 463 0
423 463 0
434 463 0
30 462 0
66 462 0
91 462 0
112 462 0
127 462 0
146 462 0
242 462 0
250 462 0
257 462 0
267 462 0
320 462 0
341 462 0
392 462 0
0 461 0
77 461 0
190 461 0
237 461 0
272 461 0
279 461 0
302 461 0
305 461 0
308 461 0
329 461 0
352 461 0
385 461 0
60 460 0
170 460 0
197 460 0
203 460 0
215 460 0
230 460 0
261 460 0
283 460 0
299 460 0
313 460 0
322 460 0
359 460 0
9 459 0
16 459 0
37 459 0
51 459 0
106 459 0
179 459 0
287 459 0
295 459 0
317 459 0
335 459 0
344 459 0
407 459 0
428 459 0
44 458 0
100 458 0
132 458 0
184 458 0
210 458 0
291 458 0
304 458 0
325 458 0
328 458 0
340 458 0
349 458 0
375 458 0
397 458 0
442 458 0
140 457 0
175 457 0
224 457 0
240 457 0
251 457 0
265 457 0
271 457 0
278 457 0
308 457 0
322 457 0
23 456 0
125 456 0
152 456 0
158 456 0
188 456 0
200 456 0
235 456 0
258 456 0
312 456 0
315 456 0
331 456 0
368 456 0
0 455 0
80 455 0
117 455 0
146 455 0
167 455 0
192 455 0
205 455 0
219 455 0
245 455 0
298 455 0
302 455 0
328 455 0
334 455 0
343 455 0
361 455 0
391 455 0
70 454 0
284 454 0
319 454 0
324 454 0
337 454 0
355 454 0
380 454 0
414 454 0
422 454 0
57 453 0
87 453 0
182 453 0
196 453 0
213 453 0
268 453 0
273 453 0
309 453 0
316 453 0
10 452 0
32 452 0
171 452 0
178 452 0
230 452 0
254 452 0
293 452 0
313 452 0
322 452 0
327 452 0
348 452 0
435 452 0
49 451 0
96 451 0
157 451 0
164 451 0
190 451 0
208 451 0
223 451 0
237 451 0
262 451 0
288 451 0
301 451 0
305 451 0
319 451 0
332 451 0
336 451 0
344 451 0
108 450 0
203 450 0
247 450 0
340 450 0
352 450 0
0 449 0
148 449 0
185 449 0
218 449 0
277 449 0
322 449 0
329 449 0
364 449 0
406 449 0
442 449 0
198 448 0
297 448 0
308 448 0
313 448 0
318 448 0
325 448 0
336 448 0
375 448 0
428 448 0
63 447 0
78 447 0
128 447 0
176 447 0
190 447 0
333 447 0
339 447 0
343 447 0
347 447 0
358 447 0
383 447 0
391 447 0
21 446 0
136 446 0
170 446 0
230 446 0
286 446 0
302 446 0
351 446 0
143 445 0
162 445 0
181 445 0
187 445 0
194 445 0
213 445 0
256 445 0
269 445 0
292 445 0
316 445 0
321 445 0
335 445 0
152 444 0
223 444 0
242 444 0
306 444 0
326 444 0
329 444 0
332 444 0
416 444 0
7 443 0
90 443 0
101 443 0
114 443 0
173 443 0
190 443 0
199 443 0
250 443 0
337 443 0
340 443 0
348 443 0
369 443 0
32 442 0
159 442 0
177 442 0
205 442 0
262 442 0
281 442 0
310 442 0
319 442 0
343 442 0
353 442 0
44 441 0
122 441 0
168 441 0
181 441 0
194 441 0
234 441 0
298 441 0
328 441 0
332 441 0
359 441 0
378 441 0
164 440 0
185 440 0
218 440 0
399 440 0
150 439 0
176 439 0
315 439 0
323 439 0
339 439 0
343 439 0
347 439 0
386 439 0
0 438 0
66 438 0
142 438 0
173 438 0
191 438 0
245 438 0
276 438 0
307 438 0
335 438 0
353 438 0
366 438 0
431 438 0
19 437 0
158 437 0
170 437 0
180 437 0
196 437 0
287 437 0
319 437 0
328 437 0
332 437 0
442 437 0
134 436 0
162 436 0
166 436 0
187 436 0
207 436 0
257 436 0
339 436 0
344 436 0
54 435 0
107 435 0
154 435 0
176 435 0
183 435 0
201 435 0
223 435 0
266 435 0
294 435 0
117 434 0
126 434 0
169 434 0
173 434 0
179 434 0
232 434 0
336 434 0
341 434 0
353 434 0
358 434 0
75 433 0
147 433 0
190 433 0
281 433 0
301 433 0
329 433 0
348 433 0
373 433 0
7 432 0
30 432 0
158 432 0
166 432 0
185 432 0
239 432 0
250 432 0
272 432 0
319 432 0
325 432 0
345 432 0
365 432 0
0 431 0
162 431 0
171 431 0
174 431 0
178 431 0
213 431 0
351 431 0
383 431 0
415 431 0
86 430 0
139 430 0
154 430 0
182 430 0
311 430 0
332 430 0
339 430 0
342 430 0
168 429 0
195 429 0
203 429 0
336 429 0
345 429 0
356 429 0
[...]
CELL_DATA 6259
COLOR_SCALARS lut 1
0.0253342
0.0274632
0.030534
0.0316337
0.032278
0.032052
0.0316619
0.0311713
0.0308596
0.0306842
0.030553
0.0304578
0.0303579
0.0303059
0.0302886
0.0302776
0.0302708
0.0302651
0.0302634
0.0302635
0.0302663
0.0302744
0.0302842
0.0303004
0.0303383
0.0303854
0.0305135
0.0306495
0.0307087
0.030646
0.0305392
0.0304145
0.0303119
0.030259
0.0302174
0.0301874
0.0301549
0.0301176
0.0300408
0.0299845
0.0299207
0.0298503
0.0297475
0.0296369
0.0295204
0.0293757
0.029279
0.0292332
0.0292346
0.029418
0.0299042
0.0303025
0.0307101
0.0312558
0.0314989
0.0316123
0.0316504
0.0316411
0.0314482
0.0312305
0.0309977
0.0307443
0.0303401
0.0299376
0.0290536
0.0284042
0.0275979
0.0261717
0.0247699
0.0231948
0.0217348
0.0203889
0.0199252
0.0199107
0.0202867
0.0208377
0.0212338
0.0211073
0.0201322
0.0194539
0.0187644
0.0188848
0.0194356
0.0202801
0.0219515
0.0232829
0.0244768
0.0255733
0.0265672
0.0272468
0.0275495
0.0278651
0.0280894
0.0283291
0.0287679
0.0291219
0.0293638
0.0295731
0.0297456
0.0298824
0.0299875
0.0300883
0.0301569
0.0302175
0.0302599
0.0302956
0.0303584
0.0304242
0.0305131
0.0306329
0.0309272
0.0311742
0.0315847
0.0319276
0.03234
0.0324969
0.0322688
0.03093
0.0286377
0.0307906
0.0235788
0.0214189
0.0237364
0.0257206
0.0297365
0.0307449
0.0312316
0.038663
0.0423673
0.0424996
0.0399054
0.0398223
0.0382112
0.0407868
0.0386407
0.0273023
0.0257519
0.0254946
0.027202
0.0259693
0.024469
0.0237912
0.0250496
0.0307213
0.0396855
0.0403932
0.042317
0.0426915
0.0416244
0.0387855
0.0408156
0.0462559
0.0479232
0.0474401
0.0466331
0.0458166
0.045594
0.045121
0.0451062
0.0450968
0.0450962
0.0451026
0.0451243
0.0451465
0.0452834
0.0453751
0.0455274
0.0453987
0.0451823
0.0451212
0.0449843
0.044936
0.0448363
0.0441944
0.0440027
0.0437503
0.0435515
0.0434209
0.0433252
0.0448425
0.0467217
0.0469733
0.046801
0.0462943
0.0459452
0.0455499
0.0448997
0.0417446
0.0404449
0.038167
0.034293
0.0294474
0.0282202
0.0303124
0.0282277
0.0268406
0.0287832
0.0308519
0.0370392
0.0417307
0.042819
0.0442826
0.0446657
0.0448551
0.0449963
0.0451086
0.0456521
0.0471059
0.0476371
0.0484038
0.0423542
0.0512133
0.0510598
0.0508681
0.0508617
0.0508612
0.0508767
0.0512658
0.0510543
0.0507913
0.050459
0.0503135
0.0501395
0.0499406
0.0488534
0.0492036
0.0497789
0.0513197
0.0530254
0.0497186
0.0314251
0.0311959
0.0318515
0.0328222
0.0327123
0.0398067
0.0426402
0.0440916
0.0452444
0.0459612
0.0473861
0.0494293
0.0506672
0.0509882
0.0511446
0.0521951
0.0547367
0.0518458
0.0458959
0.0612798
0.0584304
0.0570655
0.0570131
0.0569904
0.0570872
0.0573653
0.0549035
0.0543713
0.0587763
0.0594668
0.0593715
0.0585813
0.0543296
0.0530244
0.0453047
0.0398802
0.0367903
0.0326347
0.0317488
0.0316672
0.0334699
0.0421262
0.0517437
0.0545675
0.0560358
0.0565473
0.0569514
0.0575212
0.0580001
0.0591331
0.0607399
0.0548111
0.0588206
0.0687352
0.0660073
0.0636475
0.0634852
0.0635954
0.0636789
0.0636879
0.063551
0.0631508
0.0630197
0.0622532
0.0619527
0.0611989
0.0604294
0.0632108
0.0624773
0.0561085
0.0380058
0.0429604
0.0493226
0.0592861
0.0632977
0.0635329
0.0637195
0.0675877
0.053815
0.0582541
0.0711637
0.074969
0.0750319
0.0716298
0.0707762
0.0701908
0.0701818
0.0701747
0.0701737
0.0705337
0.0700499
0.0694712
0.069076
0.0680062
0.0670232
0.0681888
0.0714794
0.0730414
0.0725739
0.0707675
0.070005
0.0564911
0.0443985
0.0393101
0.0421381
0.0415351
0.0392105
0.0372805
0.0408629
0.04353
0.0557001
0.0576065
0.0602512
0.0612305
0.0642731
0.0677279
0.0691834
0.0698839
0.0740832
0.0759216
0.0764664
0.07256
0.0639225
0.0817958
0.0783745
0.0776404
0.0772495
0.0772064
0.0771746
0.0775846
0.0771409
0.0761026
0.0733506
0.0726815
0.0806344
0.0783009
0.0718825
0.0423392
0.0455311
0.0381619
0.0640248
0.067606
0.0733844
0.0749682
0.0765708
0.0771522
0.0790767
0.0754301
0.0925469
0.0844049
0.0844974
0.0840891
0.0791204
0.0875464
0.0798253
0.0726565
0.0693932
0.0569118
0.0455959
0.0460639
0.04081
0.0510398
0.0544003
0.0575446
0.0614925
0.0743081
0.0853225
0.0908196
0.0848505
0.0959142
0.0919967
0.0918079
0.0917995
0.0917986
0.0920019
0.0921285
0.09182
0.0916219
0.0912477
0.0896369
0.0890534
0.0873912
0.090078
0.0951841
0.0459045
0.0483717
0.0418908
0.0441119
0.0472398
0.0682951
0.0897117
0.090442
0.0922664
0.0954707
0.0990836
0.0766276
0.082177
0.101017
0.100762
0.0999002
0.0994458
0.0981391
0.0953411
0.0925256
0.0919595
0.0924627
0.0983422
0.0858284
0.0694495
0.0588223
0.0533251
0.0481107
0.0520266
0.0526443
0.0761561
0.079974
0.0871169
0.090812
0.110127
0.116031
0.110485
0.10717
0.107117
0.107508
0.106056
0.104913
0.0980149
0.111424
0.0997609
0.0786895
0.0503858
0.053313
0.0490369
0.0462615
0.0436084
0.0642431
0.0711664
0.100213
0.102275
0.105895
0.106504
0.106981
0.11008
0.114413
0.126933
0.115143
0.114994
0.11513
0.106062
0.114316
0.113831
0.10841
0.0531975
0.0441515
0.0455012
0.0508495
0.0582595
0.091583
0.128863
0.103212
0.133675
0.122964
0.122939
0.122312
0.115093
0.113008
0.117001
0.127134
0.123099
0.105542
0.0942001
0.0522707
0.0571198
0.0555698
0.118776
0.123485
0.12921
0.107623
0.129639
0.148685
0.134042
0.130991
0.131312
0.130882
0.120063
0.116741
0.116439
0.132582
0.122383
0.0785703
0.0557784
0.0544805
0.0586244
0.054311
0.0486839
0.0630479
0.0822884
0.0901779
0.11565
0.12776
0.13583
0.146942
0.139304
0.138639
0.137757
0.134329
0.121086
0.0930866
0.0681945
0.0619718
0.0590116
0.0505014
0.047553
0.0471874
0.0539468
0.0739371
0.0999212
0.106947
0.113317
0.125874
0.138288
0.143598
0.158855
0.114528
0.149534
0.148407
0.147339
0.147449
0.144732
0.143393
0.138964
0.136426
0.129306
0.144936
0.126218
0.0636225
0.0623013
0.0557422
0.0601545
0.068545
0.149974
0.134433
0.155852
0.11129
0.0924364
0.0819691
0.0629268
0.0619783
0.0627609
0.0506296
0.0909086
0.155724
0.163981
0.163934
0.162479
0.144188
0.161039
0.147697
0.140215
0.126711
0.121414
0.071303
0.0691589
0.0647726
0.0570897
0.0539748
0.0822422
0.133854
0.175873
0.181651
0.139795
0.167746
0.197343
0.178928
0.172281
0.172005
0.139871
0.147495
0.161161
0.109521
0.0640456
0.0536688
0.0544633
0.0575362
0.0624004
0.096483
0.108543
0.126526
0.158911
0.166914
0.194325
0.181595
0.180788
0.179741
0.144732
0.140102
0.16829
0.138953
0.0751841
0.0777047
0.0661037
0.119022
0.17726
0.224071
0.189042
0.170903
0.143449
0.163478
0.12358
0.0933095
0.0798397
0.0632607
0.060058
0.0573003
0.0883703
0.100248
0.153314
0.190734
0.165939
0.161857
0.153207
0.0850391
0.0745987
0.0583781
0.0595122
0.0709367
0.168383
0.208863
0.23342
0.195395
0.239272
0.206283
0.205913
0.205763
0.203109
0.190996
0.13461
0.12727
0.115953
0.0939276
0.0632072
0.105564
0.208507
0.171174
0.21445
0.144662
0.141778
0.0960686
0.0979558
0.0710519
0.0669951
0.0636378
0.0782479
0.13898
0.211337
0.224224
0.1586
0.157953
0.171743
0.170991
0.150496
0.118263
0.105021
0.0806347
0.0613433
0.0635922
0.166484
0.228331
0.263155
0.259938
0.237362
0.231219
0.14365
0.107931
0.0935723
0.0605029
0.0854417
0.108114
0.264929
0.256021
0.256307
0.239737
0.230807
0.137699
0.175483
0.107265
0.0804087
0.0651285
0.0699463
0.0936046
0.125454
0.220137
0.253337
0.191484
0.227498
0.144884
0.163518
0.157155
0.153775
0.129447
0.123023
0.124032
0.0758286
0.0611795
0.312957
0.250489
0.203872
0.186321
0.131605
0.159549
0.162575
0.150905
0.0702604
0.0650121
0.070539
0.210284
0.206406
0.265508
0.262293
0.222817
0.158263
0.133872
0.17026
0.171939
0.168199
0.110779
0.100094
0.0646932
0.0725651
0.0944011
0.182271
0.269559
0.274609
0.145502
0.0629054
0.0610326
0.0749535
0.150401
0.253756
0.342168
0.326383
0.288433
0.282404
0.121091
0.139636
0.177575
0.154023
0.151973
0.0884071
0.0693159
0.278838
0.360148
0.135977
0.120799
0.182235
0.18416
0.142756
0.0797168
0.0625787
0.0613834
0.108633
0.266058
0.321661
0.298966
0.182684
0.154579
0.116329
0.175958
0.184971
0.190945
0.178073
0.161217
0.126303
0.111938
0.0681808
0.0624882
0.0661459
0.0875908
0.305418
0.163046
0.200743
0.0717796
0.126391
0.236303
0.219997
0.103749
0.191868
0.182877
0.0677177
0.0612502
0.199057
0.396349
0.247273
0.140392
0.158966
0.115668
0.0955335
0.0792927
0.0655422
0.0615409
0.259719
0.339484
0.338933
0.334038
0.300618
0.100466
0.104802
0.0599437
0.0642672
0.0749718
0.0921109
0.158549
0.300369
0.341333
0.382573
0.275193
0.110275
0.217331
0.201035
0.15294
0.112043
0.240807
0.137245
0.0878088
0.0933432
0.11867
0.204989
0.228657
0.21138
0.193947
0.0981239
0.0820594
0.0593424
0.18718
0.22295
0.23827
0.146718
0.0727889
0.0665264
0.0617808
0.443669
0.293522
0.366492
0.363113
0.351114
0.0882453
0.0995036
0.151977
0.244833
0.0593057
0.0620529
0.0896659
0.226723
0.455181
0.139624
0.0786283
0.192713
0.237519
0.233167
0.139216
0.101137
0.0679811
0.116604
0.45846
0.341004
0.0939173
0.0766609
0.122389
0.250467
0.200718
0.0755815
0.0655466
0.154712
0.287401
0.105904
0.0828478
0.240724
0.479979
0.18311
0.0709742
0.132808
0.099467
0.0603291
0.0656492
0.0790995
0.354733
0.252893
0.418684
0.233169
0.0712633
0.110465
0.268917
0.255004
0.176701
0.0641806
0.109243
0.199311
0.381249
0.380476
0.1258
0.0741639
0.0715588
0.149528
0.25569
0.125272
0.0873859
0.0733107
0.319078
0.281757
0.100548
0.0832623
0.0949891
0.233624
0.26617
0.0616715
0.0662627
0.478321
0.407281
0.14349
0.066484
0.0815371
0.199902
0.270991
0.260757
0.248272
0.376762
0.329386
0.0699373
0.0654242
0.0716577
0.277385
0.0681815
0.0624166
0.102028
0.134249
0.454601
0.184376
0.122012
0.275286
0.232288
0.0960212
0.0760891
0.247456
0.268092
0.445166
0.109166
0.0737171
0.0985178
0.277943
0.270975
0.267687
0.149512
0.118983
0.0667235
0.182578
0.222522
0.0859835
0.0649696
0.066527
0.0745731
0.276781
0.0871644
0.339491
0.541885
0.470168
0.232212
0.126978
0.0920976
0.19998
0.0913796
0.0678507
0.0645567
0.0659058
0.179555
0.244241
0.0777484
0.0666489
0.113936
0.295539
0.502245
0.459128
0.153673
0.0657849
0.0729776
0.250547
0.584654
0.516118
0.342831
0.0943577
0.0707212
0.094134
0.125572
0.245161
0.267952
0.275202
0.273126
0.120976
0.0801517
0.448748
0.120334
0.0649781
0.163007
0.264021
0.239306
0.191645
0.152767
0.0804379
0.0681462
0.0676886
0.154109
0.201666
0.400196
0.274166
0.171745
0.237506
0.245465
0.175177
0.219493
0.0746858
0.0867153
0.122038
0.233903
0.266605
0.239723
0.26455
0.113709
0.359271
0.0692694
0.273622
0.279642
0.0692237
0.0979953
0.214953
0.534232
0.114534
0.0650567
0.148817
0.0929957
0.0724711
0.0732887
0.122321
0.392779
0.270668
0.5406
0.0680786
0.165882
0.209422
0.187054
0.278015
0.0826286
0.0893243
0.132886
0.11868
0.460006
0.160635
0.0697641
0.113119
0.212417
0.214837
0.222845
0.0732825
0.0732135
0.0858587
0.163807
0.234131
0.183701
0.134854
0.0693979
0.065232
0.0811605
0.184019
0.0907221
0.211874
0.418605
0.511112
0.0903653
0.214434
0.179672
0.246607
0.149475
0.0995392
0.536993
0.120998
0.298156
0.100379
0.193696
0.213231
0.244994
0.114353
0.0713792
0.123704
0.071405
0.239044
0.174761
0.221202
0.080655
0.0792685
0.156893
0.406021
0.0938423
0.0658659
0.0688917
0.0856652
0.147807
0.183144
0.158846
0.204253
0.0723489
0.251714
0.11345
0.214044
0.237485
0.197576
0.146121
0.166891
0.0951531
0.335816
0.10096
0.217975
0.28491
0.141566
0.0770201
0.111618
0.224632
0.166032
0.134924
0.0935528
0.195667
0.412156
0.0682308
0.0662743
0.0726514
0.135644
0.16614
0.0757331
0.0676815
0.0720592
0.138566
0.63968
0.115038
0.58861
0.326994
0.0899446
0.141559
0.125141
0.215472
0.103075
0.212381
0.170079
0.0755192
0.166609
0.178615
0.151131
0.126361
0.117323
0.0910145
0.0674946
0.067329
0.116127
0.202958
0.184558
0.118995
0.133485
0.155093
0.164973
0.178676
0.195316
0.120105
0.0859746
0.0657351
0.0722385
0.152125
0.105192
0.0856654
0.146667
0.127873
0.0697067
0.0892956
0.117804
0.241409
0.0837853
0.149719
0.0966645
0.200092
0.203525
0.169608
0.216012
0.496801
0.318982
0.120516
0.0668539
0.196231
0.100345
0.0959925
0.0924845
0.0903403
0.0931356
0.105287
0.125384
0.0999747
0.0640238
0.0750366
0.113664
0.165628
0.195374
0.439652
0.52773
0.220629
0.0851132
0.0649938
0.13043
0.187536
0.114087
0.134424
0.0792328
0.066351
0.0976522
0.331314
0.144636
0.0765573
0.1944
0.132626
0.0999247
0.0927191
0.0851964
0.0998799
0.124796
0.137418
0.150487
0.0686284
0.134527
0.548541
0.0926384
0.0674759
0.11195
0.169792
0.179891
0.136494
0.586987
0.394038
0.171993
0.0656994
0.134254
0.10748
0.0772225
0.0735195
0.0704383
0.0686504
0.0702784
0.102833
0.159973
0.173187
0.154291
0.103405
0.06798
0.0817415
0.103542
0.0742327
0.0630737
0.148931
0.150069
0.0783368
0.087096
0.110272
0.0656291
0.226489
0.329625
0.407806
0.130899
0.103077
0.0727136
0.114645
0.0831267
0.18348
0.263916
0.0958938
0.0623715
0.0778855
0.179905
0.122484
0.108776
0.100884
0.0819043
0.0753415
0.0622208
0.0581262
0.0644894
0.0911307
0.0702694
0.126913
0.163111
0.264137
0.123291
0.0672237
0.058119
0.0791308
0.154631
0.150761
0.125717
0.0685643
0.134834
0.361439
0.191943
0.154929
0.0766187
0.0622697
0.131913
0.166071
0.0627761
0.0604264
0.0572911
0.0553781
0.0542742
0.0655293
0.106236
0.0962285
0.0832872
0.0656677
0.0634382
0.0801689
0.103314
0.162872
0.14283
0.073592
0.0531768
0.0535984
0.0905158
0.114734
0.111049
0.570628
0.637724
0.0965686
0.0713725
0.11896
0.101519
0.0937774
0.0797728
0.0668977
0.0639643
0.0586918
0.0545953
0.0569725
0.0654778
0.0700911
0.119768
0.140135
0.0827943
0.0699625
0.144857
0.220769
0.491799
0.118681
0.0751476
0.0622398
0.0852969
0.0814259
0.0759499
0.0560528
0.0693441
0.0726875
0.123426
0.122057
0.106731
0.0729475
0.283841
0.20373
0.256484
0.210702
0.0621496
0.0963737
0.168933
0.161001
0.0729128
0.0639439
0.0554023
0.0572751
0.0804019
0.124557
0.130466
0.0959044
0.39709
0.171537
0.617782
0.286316
0.0731838
0.138965
0.166388
0.0720165
0.0561963
0.0557012
0.0618447
0.0698723
0.118849
0.524591
0.0637694
0.0794966
0.0786185
0.0726477
0.064176
0.0576181
0.0597191
0.067161
0.081599
0.0910868
0.118264
0.0764493
0.0781011
0.164961
0.60773
0.420785
0.122517
0.0998186
0.0764558
0.0721779
0.0644567
0.0627259
0.061201
0.0610911
0.0722093
0.113154
0.0987854
0.526859
0.170593
0.0803563
0.0626063
0.0687975
0.110385
0.0789921
0.0743199
0.0836211
0.0834892
0.0789753
0.064
0.0626042
0.0617208
0.093759
0.0935859
0.373199
0.335391
0.0946136
0.114934
0.1587
0.0805843
0.0858817
0.0761279
0.0642186
0.108255
0.0751209
0.0673131
0.0698799
0.362092
0.221015
0.0925761
0.155995
0.117257
0.0769211
0.0788445
0.0748003
0.06856
0.067972
0.0668787
0.0637405
0.0667378
0.0734765
0.0773342
0.124827
0.220011
0.12196
0.0660455
0.064317
0.0684583
0.0815093
0.0801087
0.0716253
0.0691938
0.0711595
0.0951034
0.0913727
0.074016
0.0679753
0.0649274
0.0897681
0.0951019
0.241836
0.138144
0.160868
0.0891547
0.0923414
0.0994441
0.0823103
0.0667271
0.0766518
0.0914756
0.098676
0.0736667
0.0650969
0.182423
0.385666
0.147915
0.129932
0.0691567
0.0735764
0.0786848
0.0834751
0.0620333
0.0646695
0.0946639
0.0735802
0.0675027
0.0815689
0.0676698
0.0654137
0.0681479
0.112974
0.112232
0.105131
0.101346
0.0971227
0.0869415
0.0820733
0.0750741
0.0721965
0.0822866
0.0886079
0.0923369
0.531028
0.249559
0.185154
0.118881
0.164306
0.105329
0.0852688
0.0707823
0.0751643
0.0874173
0.0955982
0.0692399
0.510488
0.301817
0.0951859
0.0749566
0.106619
0.127155
0.134134
0.125576
0.122127
0.0876288
0.0779884
0.0775882
0.0794422
0.0855344
0.0660614
0.0604769
0.0605471
0.115831
0.149228
0.449215
0.0749021
0.164308
0.065958
0.121418
0.101984
0.0833721
0.0791557
0.0749497
0.0905355
0.191301
0.250853
0.278837
0.387687
0.352787
0.0955474
0.153171
0.0664264
0.0623363
0.0736592
0.0873405
0.12667
0.117837
0.103071
0.0938269
0.0848195
0.0744073
0.0806647
0.0849165
0.0655216
0.122366
0.15866
0.0848637
0.118251
0.075306
0.0634042
0.0602817
0.0734819
0.536913
0.738109
0.0923997
0.0816015
0.0859954
0.0681283
0.151242
0.144699
0.125677
0.10059
0.0966125
0.073209
0.0827323
0.0697675
0.455413
0.201044
0.133795
0.172392
0.135482
0.10915
0.0656412
0.0609816
0.107906
0.150901
0.128501
0.0858498
0.0779108
0.0625277
0.0620161
0.0917519
0.127684
0.108859
0.0879115
0.0722141
0.0621971
0.0836241
0.162095
0.122126
0.104106
0.0988789
0.0723906
0.0821071
0.077899
0.167947
0.115154
0.0939312
0.0711181
0.159089
0.0730812
0.0720353
0.0619651
0.0687276
0.180262
0.310355
0.100658
0.0632359
0.100221
0.134416
0.157391
0.127259
0.0999961
0.0829919
0.566944
0.167609
0.168583
0.060805
0.181869
0.177744
0.157983
0.1248
0.0736851
0.0782937
0.0852577
0.0684098
0.0629458
0.0989428
0.357115
0.372947
0.346875
0.564906
0.124509
0.187562
0.100282
0.0698858
0.0767654
0.163479
0.157709
0.118292
0.0800479
0.0734391
0.0857875
0.0716158
0.127778
0.162559
0.118842
0.110957
0.133905
0.0615974
0.0679197
0.124553
0.182787
0.193287
0.078622
0.0809836
0.247287
0.0858408
0.0896353
0.137057
0.110586
0.0934377
0.0706687
0.0656529
0.756639
0.24131
0.128808
0.187358
0.0608135
0.151451
0.19136
0.168558
0.161202
0.082464
0.089212
0.066605
0.449984
0.0661172
0.0656277
0.185674
0.0858842
0.0777336
0.0914969
0.146828
0.164469
0.161602
0.129154
0.0972867
0.0616534
0.0803921
0.119297
0.174757
0.0744684
0.0718135
0.10044
0.42254
0.562032
0.136944
0.0765808
0.209398
0.16734
0.0818093
0.0976497
0.0909307
0.161185
0.221422
0.20229
0.0685522
0.0632313
0.0669583
0.0965115
0.139253
0.217612
0.159585
0.107197
0.0838838
0.0685417
0.080083
0.123263
0.209838
0.310232
0.483828
0.156461
0.182919
0.0622397
0.189442
0.148266
0.0852835
0.0714708
0.495409
0.181501
0.0999004
0.217059
0.0818858
0.0886231
0.0972728
0.100745
0.408517
0.187745
0.199082
0.155587
0.0715691
0.0643674
0.0763397
0.207427
0.185453
0.177206
0.136364
0.103635
0.0707137
0.0723227
0.447939
0.310581
0.156815
0.130501
0.0816187
0.0661551
0.0911949
0.110721
0.16391
0.108602
0.0865723
0.0774539
0.0826448
0.552029
0.0634597
0.190809
0.219676
0.1028
0.106476
0.365974
0.82418
0.235822
0.173991
0.0681326
0.194321
0.19003
0.0935064
0.103228
0.0920933
0.0749262
0.0751129
0.131851
0.202615
0.0896503
0.0699429
0.0957574
0.0811975
0.257839
0.472753
0.648363
0.515318
0.155636
0.127894
0.10479
0.0776902
0.0650677
0.0632227
0.0739195
0.0883107
0.121441
0.207017
0.183203
0.162132
0.0858558
0.110818
0.18425
0.19186
0.1804
0.138794
0.106761
0.0763107
0.0826484
0.163222
0.172268
0.092949
0.0636545
0.0963406
0.153057
0.214473
0.0846574
0.0808193
0.0917703
0.0812948
0.168078
0.18196
0.102582
0.0816124
0.175726
0.111365
0.111967
0.108682
0.315419
0.113663
0.0737628
0.0631561
0.0682552
0.201258
0.18236
0.169678
0.0863116
0.0986392
0.118003
0.0793706
0.248934
0.120747
0.0607517
0.0773677
0.121488
0.193238
0.160625
0.166786
0.0798891
0.0922915
0.0819355
0.140572
0.869572
0.168262
0.167473
0.130003
0.132431
0.107557
0.439659
0.364509
0.150133
0.075365
0.0653534
0.060178
0.0952083
0.143042
0.111273
0.0867935
0.0901714
0.178838
0.340442
0.156675
0.0839297
0.0795663
0.0596868
0.0661789
0.192396
0.147297
0.156428
0.0832181
0.109974
0.125703
0.0898455
0.24081
0.609328
0.156951
0.101084
0.0867354
0.0716406
0.103905
0.173192
0.155177
0.15553
0.139176
0.123733
0.103602
0.545588
0.179099
0.0670728
0.0634071
0.0574622
0.131792
0.0797827
0.0936498
0.12004
0.10289
0.0874815
0.0879603
0.359425
0.146626
0.131229
0.114842
0.099595
0.0715891
0.056508
0.0589209
0.153292
0.131183
0.124224
0.137506
0.0899756
0.437248
0.128129
0.076318
0.0698057
0.0671218
0.059188
0.104278
0.134617
0.0970332
0.135659
0.0637293
0.0609577
0.0552581
0.0591891
0.064509
0.0727417
0.0935896
0.114875
0.163097
0.119387
0.122429
0.0820685
0.105842
0.0903271
0.236603
0.127082
0.120844
0.075498
0.0631531
0.0562991
0.168559
0.13002
0.107453
0.130636
0.0813434
0.130611
0.235179
0.139678
0.0848506
0.0658087
0.0624867
0.0607396
0.0578002
0.0542133
0.0547941
0.167267
0.11239
0.129971
0.0880386
0.0935955
0.132757
0.111589
0.104777
0.111357
0.059717
0.0591245
0.0563138
0.067834
0.134593
0.0997658
0.0944682
0.176357
0.372669
0.36487
0.882259
0.173792
0.100751
0.109108
0.0881593
0.0562064
0.0577045
0.0533821
0.0595602
0.0769858
0.100897
0.142802
0.0900667
0.143217
0.139725
0.440212
0.583202
0.482229
0.105333
0.0959621
0.0666192
0.0549998
0.0560754
0.054702
0.053535
0.141479
0.090097
0.0875549
0.103743
0.115709
0.116334
0.084066
0.0978747
0.100164
0.0524099
0.056279
0.0536928
0.0643631
0.156801
0.109287
0.095328
0.107139
0.117993
0.140055
0.113671
0.525255
0.194939
0.0808577
0.0552504
0.0519966
0.0551543