# vtk DataFile Version 1.0
Unstructured Grid Example
ASCII

DATASET UNSTRUCTURED_GRID
POINTS 6259 float
152 271 0
222 313 0
29 370 0
364 474 0
269 315 0
258 122 0
200 18 0
176 1 0
196 112 0
14 179 0
155 225 0
0 471 0
203 300 0
175 244 0
222 192 0
248 363 0
400 481 0
361 455 0
306 349 0
316 273 0
224 244 0
272 225 0
323 229 0
328 216 0
115 144 0
101 138 0
108 138 0
124 138 0
157 69 0
235 82 0
198 99 0
195 108 0
139 94 0
188 205 0
193 253 0
240 211 0
217 166 0
187 187 0
76 163 0
76 157 0
19 219 0
59 222 0
120 325 0
128 322 0
148 367 0
154 409 0
70 454 0
59 483 0
147 486 0
110 486 0
110 474 0
180 437 0
163 479 0
176 439 0
205 455 0
232 434 0
182 420 0
174 404 0
176 350 0
205 318 0
248 353 0
332 321 0
259 320 0
310 339 0
281 433 0
261 486 0
307 476 0
329 393 0
304 372 0
365 478 0
389 483 0
393 482 0
376 466 0
431 438 0
338 418 0
334 309 0
349 353 0
350 411 0
316 256 0
369 291 0
406 230 0
307 287 0
271 256 0
240 307 0
259 196 0
293 226 0
305 251 0
375 120 0
356 99 0
329 61 0
366 19 0
368 46 0
376 1 0
412 146 0
430 140 0
414 137 0
442 12 0
12 145 0
15 16 0
16 1 0
0 159 0
4 161 0
9 164 0
14 184 0
28 175 0
82 160 0
122 147 0
85 149 0
114 180 0
109 163 0
112 124 0
107 128 0
87 89 0
118 113 0
119 21 0
198 9 0
177 134 0
179 30 0
176 5 0
211 9 0
230 45 0
221 107 0
220 87 0
218 118 0
179 172 0
227 134 0
181 185 0
156 144 0
156 178 0
143 159 0
123 171 0
138 173 0
126 173 0
199 212 0
183 212 0
193 202 0
196 204 0
231 193 0
234 201 0
233 214 0
228 202 0
213 218 0
211 252 0
231 251 0
217 230 0
223 257 0
205 259 0
206 232 0
195 224 0
198 259 0
184 261 0
170 242 0
170 246 0
168 260 0
168 232 0
177 219 0
181 200 0
162 186 0
168 214 0
175 216 0
161 204 0
112 198 0
75 187 0
45 193 0
88 200 0
143 229 0
147 231 0
153 251 0
149 236 0
143 233 0
121 269 0
37 293 0
0 276 0
125 304 0
144 285 0
155 286 0
159 292 0
154 312 0
139 299 0
143 379 0
152 317 0
153 332 0
138 320 0
134 333 0
132 320 0
108 318 0
77 324 0
124 381 0
64 474 0
4 410 0
0 466 0
23 456 0
44 482 0
11 486 0
46 484 0
50 484 0
50 480 0
124 478 0
69 483 0
136 486 0
125 483 0
134 483 0
158 456 0
125 456 0
87 453 0
151 385 0
158 427 0
203 375 0
199 372 0
184 392 0
201 378 0
181 402 0
160 486 0
188 471 0
190 466 0
201 413 0
215 466 0
227 478 0
214 474 0
219 455 0
232 395 0
218 386 0
208 369 0
210 379 0
236 358 0
213 316 0
233 335 0
215 296 0
206 288 0
192 326 0
178 335 0
167 308 0
195 322 0
198 295 0
202 277 0
198 280 0
197 265 0
203 274 0
211 276 0
221 274 0
214 282 0
233 287 0
230 284 0
226 263 0
273 327 0
255 315 0
247 320 0
275 313 0
300 304 0
303 316 0
294 329 0
284 323 0
278 320 0
284 329 0
292 341 0
306 354 0
282 354 0
275 357 0
275 344 0
250 347 0
269 357 0
264 372 0
240 457 0
268 394 0
256 445 0
237 394 0
246 481 0
253 485 0
268 486 0
279 473 0
253 470 0
305 479 0
299 481 0
309 483 0
293 469 0
291 395 0
284 465 0
284 382 0
287 372 0
308 393 0
333 447 0
319 437 0
313 452 0
316 453 0
324 454 0
323 482 0
331 464 0
325 458 0
328 458 0
405 481 0
404 486 0
412 486 0
386 484 0
371 479 0
340 479 0
340 458 0
351 431 0
428 459 0
351 381 0
368 426 0
359 416 0
353 401 0
344 414 0
343 407 0
331 385 0
333 393 0
340 390 0
329 342 0
315 378 0
313 305 0
317 337 0
342 314 0
347 365 0
354 373 0
360 328 0
359 316 0
432 300 0
342 260 0
345 282 0
436 211 0
442 197 0
442 184 0
438 161 0
411 165 0
418 190 0
378 195 0
314 219 0
295 208 0
326 248 0
310 255 0
319 272 0
330 273 0
334 281 0
332 277 0
295 294 0
268 262 0
290 276 0
279 277 0
265 300 0
262 289 0
238 299 0
244 260 0
253 252 0
253 231 0
252 177 0
248 221 0
243 168 0
251 164 0
258 175 0
275 193 0
272 204 0
290 219 0
290 193 0
294 162 0
271 123 0
314 121 0
289 139 0
291 148 0
268 142 0
241 146 0
251 139 0
256 132 0
257 138 0
268 92 0
248 117 0
272 74 0
277 69 0
293 83 0
282 103 0
327 64 0
328 53 0
336 48 0
349 25 0
363 1 0
341 1 0
361 7 0
343 79 0
349 106 0
376 152 0
375 36 0
352 34 0
382 132 0
387 150 0
430 156 0
421 154 0
409 106 0
442 81 0
396 66 0
382 18 0
388 59 0
394 44 0
0 10 0
0 20 0
0 15 0
5 1 0
35 16 0
55 13 0
79 18 0
36 28 0
27 24 0
85 101 0
94 85 0
96 94 0
96 56 0
75 63 0
76 34 0
29 41 0
30 54 0
20 88 0
12 120 0
0 103 0
7 111 0
0 128 0
7 132 0
6 148 0
17 161 0
40 149 0
42 141 0
100 154 0
96 157 0
51 156 0
76 146 0
95 144 0
90 145 0
59 114 0
77 107 0
93 131 0
121 136 0
110 134 0
106 134 0
132 136 0
109 145 0
130 151 0
139 163 0
136 146 0
144 138 0
161 163 0
154 163 0
150 158 0
161 153 0
158 150 0
149 149 0
148 132 0
155 148 0
164 137 0
156 126 0
161 121 0
153 123 0
143 124 0
141 131 0
110 130 0
116 127 0
126 123 0
130 119 0
119 91 0
112 115 0
120 42 0
130 14 0
143 39 0
146 70 0
151 109 0
157 95 0
153 48 0
155 1 0
186 31 0
182 18 0
179 9 0
186 18 0
167 85 0
170 91 0
177 92 0
180 86 0
180 34 0
194 59 0
192 95 0
195 81 0
188 55 0
196 39 0
192 40 0
189 28 0
193 35 0
194 20 0
202 28 0
201 1 0
201 4 0
204 20 0
206 3 0
214 5 0
222 20 0
212 26 0
206 6 0
207 29 0
213 77 0
212 93 0
216 65 0
205 79 0
204 32 0
197 44 0
199 60 0
199 72 0
199 107 0
189 112 0
189 117 0
192 110 0
203 108 0
218 99 0
219 112 0
210 109 0
201 117 0
214 150 0
220 149 0
220 123 0
213 131 0
201 154 0
195 130 0
188 125 0
194 148 0
194 156 0
184 146 0
187 161 0
179 158 0
184 158 0
187 137 0
186 118 0
181 117 0
179 131 0
181 137 0
179 141 0
177 117 0
167 103 0
174 107 0
176 145 0
174 149 0
177 155 0
178 162 0
168 161 0
164 161 0
172 177 0
167 167 0
178 166 0
170 185 0
168 196 0
165 201 0
177 199 0
173 197 0
168 189 0
181 206 0
187 214 0
178 203 0
191 205 0
192 197 0
186 199 0
183 164 0
189 184 0
196 193 0
200 169 0
199 174 0
205 187 0
207 172 0
214 177 0
214 168 0
218 189 0
210 184 0
209 180 0
218 193 0
222 210 0
220 201 0
222 197 0
211 210 0
214 199 0
199 189 0
210 203 0
203 216 0
206 219 0
204 224 0
214 228 0
210 224 0
216 217 0
219 216 0
222 219 0
219 220 0
217 226 0
212 256 0
214 242 0
214 245 0
217 242 0
211 246 0
212 240 0
202 236 0
205 241 0
208 247 0
190 242 0
194 248 0
197 250 0
191 239 0
187 229 0
192 222 0
183 218 0
184 229 0
187 233 0
177 236 0
176 233 0
175 224 0
171 231 0
174 235 0
168 240 0
178 240 0
182 244 0
182 249 0
179 243 0
160 243 0
162 251 0
154 242 0
152 254 0
145 250 0
123 250 0
127 241 0
133 245 0
145 242 0
134 228 0
126 227 0
128 221 0
137 222 0
151 225 0
145 226 0
155 239 0
161 237 0
159 235 0
148 203 0
158 217 0
161 218 0
157 199 0
159 183 0
164 165 0
147 170 0
153 174 0
144 193 0
141 183 0
137 182 0
133 166 0
129 175 0
135 178 0
130 190 0
138 186 0
138 207 0
132 195 0
129 217 0
107 178 0
110 180 0
103 189 0
81 183 0
115 173 0
104 165 0
93 164 0
97 168 0
77 178 0
0 171 0
53 163 0
60 171 0
30 166 0
6 176 0
35 175 0
52 182 0
4 186 0
0 188 0
6 196 0
0 202 0
4 191 0
15 194 0
108 191 0
120 190 0
109 204 0
102 197 0
95 192 0
86 207 0
119 215 0
115 256 0
98 249 0
97 238 0
84 249 0
73 247 0
10 224 0
69 226 0
4 234 0
126 281 0
100 258 0
104 277 0
16 275 0
96 293 0
70 303 0
104 302 0
119 295 0
105 286 0
140 280 0
136 285 0
136 299 0
139 288 0
135 280 0
130 275 0
128 270 0
137 258 0
139 271 0
143 264 0
143 268 0
141 274 0
144 272 0
154 265 0
162 258 0
163 273 0
146 274 0
145 277 0
162 301 0
166 279 0
165 287 0
158 278 0
156 303 0
156 293 0
148 279 0
143 281 0
142 297 0
147 318 0
144 330 0
147 314 0
148 305 0
151 305 0
158 312 0
161 319 0
160 324 0
159 321 0
155 341 0
164 335 0
157 380 0
161 380 0
149 380 0
152 374 0
145 333 0
148 343 0
148 376 0
141 322 0
143 324 0
127 330 0
136 329 0
141 313 0
142 306 0
140 308 0
137 311 0
126 314 0
118 320 0
113 307 0
50 310 0
24 322 0
101 329 0
39 338 0
109 344 0
122 367 0
118 351 0
93 375 0
30 396 0
20 398 0
0 408 0
3 399 0
55 404 0
57 391 0
86 430 0
75 433 0
42 428 0
89 469 0
111 468 0
82 464 0
66 438 0
35 470 0
60 460 0
9 459 0
30 462 0
7 466 0
4 476 0
75 472 0
58 478 0
4 480 0
0 482 0
14 484 0
40 486 0
75 486 0
55 481 0
107 486 0
85 486 0
80 486 0
109 483 0
87 482 0
76 482 0
75 476 0
80 476 0
95 475 0
120 471 0
147 433 0
134 436 0
146 462 0
132 477 0
129 479 0
139 486 0
141 480 0
136 476 0
155 480 0
150 486 0
157 482 0
167 476 0
157 476 0
149 470 0
160 469 0
162 436 0
164 451 0
163 418 0
166 422 0
165 414 0
157 420 0
140 418 0
112 425 0
123 416 0
148 413 0
152 414 0
142 405 0
127 404 0
116 381 0
145 385 0
149 388 0
155 385 0
155 405 0
165 395 0
159 387 0
166 384 0
172 349 0
170 340 0
168 344 0
180 351 0
181 336 0
195 342 0
192 343 0
190 347 0
181 346 0
194 377 0
195 364 0
190 365 0
189 405 0
179 396 0
188 383 0
178 360 0
178 365 0
170 402 0
183 435 0
183 424 0
173 408 0
178 406 0
177 486 0
173 486 0
180 486 0
183 484 0
181 441 0
197 476 0
191 482 0
190 479 0
190 461 0
191 438 0
185 449 0
186 427 0
188 421 0
190 433 0
206 400 0
198 388 0
205 382 0
207 408 0
198 480 0
198 486 0
204 484 0
202 469 0
205 465 0
217 481 0
220 486 0
217 486 0
223 444 0
221 398 0
215 423 0
214 394 0
222 390 0
223 393 0
212 365 0
220 353 0
214 374 0
210 373 0
204 358 0
200 369 0
197 355 0
201 348 0
207 350 0
210 345 0
199 342 0
198 336 0
204 337 0
210 335 0
214 336 0
215 339 0
218 342 0
221 336 0
218 335 0
214 323 0
212 326 0
223 333 0
216 321 0
220 315 0
217 314 0
214 304 0
215 308 0
216 317 0
201 320 0
209 310 0
210 306 0
207 320 0
202 324 0
205 322 0
209 332 0
207 330 0
204 330 0
198 321 0
200 334 0
188 322 0
193 331 0
184 334 0
181 333 0
169 324 0
178 328 0
180 330 0
175 321 0
174 317 0
169 305 0
172 313 0
181 316 0
185 315 0
184 318 0
198 317 0
200 310 0
198 307 0
196 288 0
204 290 0
204 303 0
201 293 0
182 304 0
171 298 0
180 288 0
187 297 0
192 292 0
184 257 0
173 262 0
170 286 0
180 264 0
192 263 0
194 271 0
197 268 0
200 263 0
199 256 0
208 267 0
211 267 0
206 264 0
208 261 0
209 270 0
209 303 0
213 298 0
213 285 0
211 280 0
218 291 0
215 301 0
219 294 0
222 291 0
219 288 0
219 269 0
214 266 0
215 262 0
220 258 0
223 263 0
242 313 0
224 309 0
232 309 0
240 318 0
226 318 0
225 326 0
239 334 0
248 324 0
251 319 0
267 312 0
263 320 0
260 332 0
266 322 0
257 306 0
253 305 0
253 291 0
258 298 0
267 304 0
271 307 0
268 301 0
279 305 0
284 308 0
308 299 0
316 295 0
305 304 0
291 304 0
288 308 0
297 310 0
317 330 0
310 332 0
292 314 0
291 330 0
287 321 0
277 309 0
286 318 0
281 322 0
286 350 0
280 337 0
277 334 0
283 342 0
287 344 0
[...]
CELL_DATA 12213
COLOR_SCALARS ColorSpace 1
0.84183
0.240523
0.477124
0.346405
0.186928
0.430065
0.537255
0.328105
0.160784
0.508497
0.101961
0.466667
0.109804
0.843137
0.573856
0.820915
0.101961
0.101961
0.155556
0.270588
0.67451
0.101961
0.335948
0.320261
0.271895
0.576471
0.277124
0.545098
0.482353
0.469281
0.840523
0.126797
0.815686
0.554248
0.411765
0.15817
0.427451
0.281046
0.40915
0.410458
0.85098
0.101961
0.858824
0.852288
0.845752
0.615686
0.418301
0.101961
0.301961
0.318954
0.288889
0.256209
0.345098
0.219608
0.312418
0.192157
0.139869
0.101961
0.101961
0.384314
0.101961
0.101961
0.101961
0.333333
0.258824
0.2
0.534641
0.322876
0.366013
0.112418
0.189542
0.511111
0.411765
0.64183
0.108497
0.101961
0.101961
0.585621
0.207843
0.618301
0.605229
0.335948
0.613072
0.313725
0.096732
0.560784
0.572549
0.335948
0.415686
0.475817
0.411765
0.414379
0.445752
0.420915
0.481046
0.415686
0.422222
0.101961
0.537255
0.530719
0.414379
0.393464
0.101961
0.667974
0.696732
0.186928
0.505882
0.521569
0.100654
0.172549
0.31634
0.175163
0.346405
0.12549
0.337255
0.566013
0.101961
0.461438
0.443137
0.415686
0.457516
0.103268
0.101961
0.747712
0.462745
0.101961
0.845752
0.847059
0.11634
0.445752
0.101961
0.837908
0.844444
0.752941
0.738562
0.84183
0.849673
0.844444
0.854902
0.844444
0.437908
0.74902
0.475817
0.135948
0.864052
0.101961
0.168627
0.779085
0.384314
0.581699
0.8
0.862745
0.864052
0.861438
0.101961
0.105882
0.430065
0.403922
0.376471
0.269281
0.445752
0.844444
0.769935
0.843137
0.640523
0.281046
0.475817
0.467974
0.261438
0.854902
0.847059
0.381699
0.601307
0.853595
0.848366
0.112418
0.858824
0.837908
0.852288
0.847059
0.852288
0.852288
0.85098
0.845752
0.228758
0.101961
0.10719
0.101961
0.100654
0.101961
0.54902
0.598693
0.589542
0.588235
0.615686
0.108497
0.368627
0.101961
0.256209
0.354248
0.244444
0.101961
0.152941
0.607843
0.267974
0.624837
0.258824
0.260131
0.192157
0.101961
0.138562
0.270588
0.101961
0.152941
0.101961
0.101961
0.104575
0.403922
0.369935
0.104575
0.101961
0.101961
0.101961
0.101961
0.104575
0.101961
0.379085
0.619608
0.109804
0.101961
0.388235
0.384314
0.104575
0.101961
0.393464
0.375163
0.101961
0.347712
0.406536
0.100654
0.351634
0.139869
0.373856
0.101961
0.224837
0.350327
0.20915
0.168627
0.192157
0.317647
0.675817
0.76732
0.254902
0.433987
0.407843
0.271895
0.478431
0.482353
0.410458
0.479739
0.324183
0.352941
0.381699
0.384314
0.309804
0.193464
0.352941
0.10719
0.362092
0.559477
0.431373
0.36732
0.359477
0.257516
0.388235
0.322876
0.539869
0.288889
0.385621
0.356863
0.171242
0.224837
0.192157
0.227451
0.376471
0.215686
0.355556
0.138562
0.351634
0.256209
0.444444
0.237908
0.444444
0.511111
0.418301
0.117647
0.454902
0.503268
0.104575
0.407843
0.410458
0.420915
0.243137
0.478431
0.392157
0.346405
0.101961
0.315033
0.105882
0.633987
0.0980392
0.605229
0.631373
0.101961
0.101961
0.40915
0.181699
0.207843
0.411765
0.305882
0.345098
0.383007
0.657516
0.121569
0.649673
0.386928
0.568627
0.568627
0.580392
0.624837
0.309804
0.227451
0.422222
0.317647
0.397386
0.303268
0.231373
0.413072
0.573856
0.133333
0.396078
0.467974
0.518954
0.134641
0.214379
0.281046
0.526797
0.456209
0.124183
0.619608
0.101961
0.606536
0.299346
0.584314
0.60915
0.575163
0.613072
0.542484
0.466667
0.402614
0.402614
0.477124
0.473203
0.423529
0.418301
0.462745
0.423529
0.388235
0.416993
0.402614
0.402614
0.414379
0.410458
0.405229
0.426144
0.494118
0.435294
0.433987
0.401307
0.426144
0.43268
0.420915
0.552941
0.433987
0.427451
0.439216
0.49281
0.436601
0.420915
0.0980392
0.101961
0.511111
0.484967
0.345098
0.117647
0.305882
0.101961
0.101961
0.101961
0.403922
0.101961
0.101961
0.101961
0.413072
0.454902
0.530719
0.475817
0.244444
0.101961
0.543791
0.101961
0.503268
0.522876
0.551634
0.576471
0.521569
0.101961
0.309804
0.503268
0.324183
0.359477
0.135948
0.453595
0.132026
0.350327
0.410458
0.453595
0.305882
0.305882
0.471895
0.447059
0.303268
0.377778
0.341176
0.426144
0.381699
0.233987
0.315033
0.11634
0.448366
0.31634
0.354248
0.377778
0.375163
0.43268
0.266667
0.351634
0.32549
0.458824
0.258824
0.351634
0.371242
0.366013
0.371242
0.279739
0.329412
0.342484
0.422222
0.317647
0.318954
0.466667
0.410458
0.487582
0.503268
0.428758
0.457516
0.448366
0.503268
0.397386
0.407843
0.328105
0.393464
0.453595
0.435294
0.371242
0.457516
0.422222
0.456209
0.542484
0.452288
0.347712
0.440523
0.347712
0.228758
0.594771
0.569935
0.550327
0.237908
0.101961
0.520261
0.448366
0.196078
0.457516
0.454902
0.355556
0.475817
0.460131
0.494118
0.461438
0.440523
0.501961
0.197386
0.101961
0.317647
0.462745
0.101961
0.326797
0.371242
0.10719
0.598693
0.101961
0.52549
0.579085
0.690196
0.667974
0.743791
0.630065
0.317647
0.371242
0.35817
0.742484
0.418301
0.807843
0.679739
0.197386
0.645752
0.373856
0.101961
0.113725
0.329412
0.366013
0.496732
0.377778
0.428758
0.330719
0.101961
0.101961
0.818301
0.101961
0.101961
0.101961
0.308497
0.244444
0.104575
0.722876
0.226144
0.777778
0.687582
0.517647
0.478431
0.56732
0.664052
0.614379
0.333333
0.843137
0.839216
0.845752
0.847059
0.836601
0.759477
0.835294
0.837908
0.771242
0.836601
0.814379
0.637908
0.145098
0.837908
0.852288
0.843137
0.2
0.65098
0.830065
0.656209
0.824837
0.827451
0.652288
0.138562
0.109804
0.592157
0.101961
0.43268
0.427451
0.275817
0.112418
0.313725
0.2
0.201307
0.175163
0.175163
0.470588
0.101961
0.10719
0.101961
0.339869
0.10719
0.101961
0.193464
0.156863
0.252288
0.847059
0.840523
0.101961
0.860131
0.154248
0.858824
0.858824
0.115033
0.147712
0.371242
0.815686
0.857516
0.862745
0.815686
0.856209
0.853595
0.860131
0.852288
0.864052
0.861438
0.852288
0.64183
0.853595
0.435294
0.121569
0.40915
0.439216
0.300654
0.308497
0.215686
0.0928105
0.109804
0.862745
0.555556
0.861438
0.101961
0.854902
0.473203
0.503268
0.335948
0.410458
0.639216
0.462745
0.666667
0.175163
0.318954
0.422222
0.443137
0.304575
0.298039
0.433987
0.484967
0.422222
0.40915
0.539869
0.398693
0.458824
0.155556
0.484967
0.210458
0.384314
0.802614
0.359477
0.175163
0.426144
0.580392
0.126797
0.256209
0.139869
0.193464
0.124183
0.560784
0.407843
0.857516
0.162092
0.858824
0.122876
0.152941
0.318954
0.836601
0.84183
0.844444
0.843137
0.843137
0.840523
0.839216
0.830065
0.375163
0.8
0.729412
0.833987
0.470588
0.83268
0.803922
0.797386
0.101961
0.126797
0.0993464
0.101961
0.101961
0.210458
0.104575
0.840523
0.101961
0.844444
0.72549
0.844444
0.101961
0.844444
0.101961
0.688889
0.177778
0.854902
0.105882
0.820915
0.678431
0.101961
0.247059
0.132026
0.84183
0.579085
0.853595
0.860131
0.852288
0.847059
0.85098
0.416993
0.471895
0.691503
0.852288
0.847059
0.853595
0.854902
0.854902
0.833987
0.709804
0.85098
0.675817
0.818301
0.839216
0.520261
0.792157
0.84183
0.644444
0.852288
0.852288
0.104575
0.101961
0.101961
0.104575
0.101961
0.101961
0.101961
0.101961
0.101961
0.101961
0.101961
0.101961
0.101961
0.101961
0.134641
0.101961
0.100654
0.101961
0.0954248
0.266667
0.101961
0.101961
0.101961
0.101961
0.101961
0.101961
0.101961
0.101961
0.101961
0.101961
0.101961
0.101961
0.101961
0.150327
0.101961
0.101961
0.101961
0.101961
0.101961
0.101961
0.101961
0.101961
0.101961
0.55817
0.101961
0.105882
0.101961
0.101961
0.321569
0.108497
0.267974
0.192157
0.101961
0.096732
0.101961
0.309804
0.277124
0.228758
0.101961
0.279739
0.101961
0.101961
0.0954248
0.101961
0.101961
0.112418
0.269281
0.345098
0.328105
0.339869
0.295425
0.320261
0.39085
0.369935
0.328105
0.226144
0.35817
0.379085
0.295425
0.105882
0.401307
0.352941
0.411765
0.181699
0.0993464
0.369935
0.101961
0.30719
0.105882
0.372549
0.101961
0.228758
0.101961
0.121569
0.347712
0.100654
0.405229
0.332026
0.269281
0.185621
0.366013
0.235294
0.171242
0.381699
0.101961
0.19085
0.226144
0.342484
0.2
0.169935
0.35817
0.29281
0.304575
0.24183
0.163399
0.101961
0.100654
0.101961
0.101961
0.101961
0.101961
0.101961
0.233987
0.0980392
0.101961
0.101961
0.101961
0.101961
0.101961
0.101961
0.101961
0.101961
0.101961
0.101961
0.0993464
0.101961
0.0980392
0.104575
0.101961
0.249673
0.111111
0.101961
0.121569
0.101961
0.597386
0.101961
0.105882
0.101961
0.233987
0.101961
0.105882
0.101961
0.101961
0.101961
0.0888889
0.101961
0.101961
0.101961
0.101961
0.101961
0.100654
0.101961
0.118954
0.101961
0.096732
0.0928105
0.0928105
0.104575
0.145098
0.128105
0.104575
0.247059
0.661438
0.105882
0.096732
0.111111
0.375163
0.509804
0.469281
0.426144
0.101961
0.290196
0.101961
0.0941176
0.101961
0.104575
0.101961
0.10719
0.526797
0.569935
0.105882
0.101961
0.101961
0.096732
0.176471
0.269281
0.101961
0.101961
0.166013
0.105882
0.109804
0.235294
0.0928105
0.101961
0.230065
0.101961
0.101961
0.105882
0.0980392
0.341176
0.0875817
0.172549
0.308497
0.188235
0.101961
0.096732
0.201307
0.101961
0.410458
0.260131
0.392157
0.393464
0.333333
0.111111
0.100654
0.0875817
0.303268
0.402614
0.341176
0.0993464
0.406536
0.160784
0.394771
0.337255
0.14902
0.356863
0.096732
0.376471
0.337255
0.396078
0.101961
0.101961
0.0954248
0.24183
0.155556
0.356863
0.305882
0.101961
0.118954
0.269281
0.100654
0.237908
0.101961
0.356863
0.345098
0.10719
0.447059
0.105882
0.481046
0.4
0.121569
0.219608
0.186928
0.103268
0.414379
0.101961
0.101961
0.176471
0.101961
0.115033
0.115033
0.112418
0.10719
0.101961
0.10719
0.121569
0.194771
0.328105
0.101961
0.376471
0.101961
0.104575
0.415686
0.101961
0.25098
0.101961
0.101961
0.179085
0.505882
0.496732
0.402614
0.513725
0.389542
0.43268
0.469281
0.439216
0.478431
0.457516
0.422222
0.47451
0.34902
0.437908
0.155556
0.260131
0.385621
0.44183
0.333333
0.228758
0.47451
0.308497
0.500654
0.352941
0.213072
0.300654
0.108497
0.487582
0.416993
0.291503
0.124183
0.48366
0.47451
0.29281
0.478431
0.103268
0.456209
0.436601
0.456209
0.384314
0.436601
0.366013
0.43268
0.462745
0.203922
0.406536
0.487582
0.470588
0.218301
0.343791
0.10719
0.113725
0.248366
0.277124
0.356863
0.183007
0.175163
0.279739
0.265359
0.376471
0.428758
0.32549
0.130719
0.143791
0.175163
0.464052
0.23268
0.371242
0.354248
0.55817
0.571242
0.614379
0.74902
0.657516
0.351634
0.734641
0.654902
0.535948
0.248366
0.352941
0.499346
0.364706
0.852288
0.807843
0.481046
0.288889
0.339869
0.360784
0.339869
0.210458
0.4
0.308497
0.368627
0.332026
0.369935
0.35817
0.380392
0.708497
0.366013
0.385621
0.337255
0.339869
0.339869
0.440523
0.366013
0.324183
0.328105
0.288889
0.684967
0.352941
0.381699
0.142484
0.291503
0.49281
0.290196
0.261438
0.541176
0.109804
0.729412
0.305882
0.681046
0.380392
0.291503
0.296732
0.100654
0.39085
0.354248
0.129412
0.176471
0.147712
0.394771
0.228758
0.290196
0.380392
0.311111
0.447059
0.155556
0.31634
0.315033
0.254902
0.416993
0.458824
0.320261
0.39085
0.228758
0.397386
0.402614
0.230065
0.096732
0.286275
0.528105
0.101961
0.658824
0.096732
0.101961
0.296732
0.129412
0.31634
0.326797
0.156863
0.643137
0.231373
0.598693
0.645752
0.129412
0.658824
0.315033
0.228758
0.124183
0.101961
0.394771
0.333333
0.364706
0.428758
0.355556
0.220915
0.155556
0.226144
0.435294
0.439216
0.431373
0.291503
0.309804
0.388235
0.393464
0.101961
0.0993464
0.101961
0.101961
0.299346
0.11634
0.101961
0.369935
0.151634
0.11634
0.65098
0.223529
0.10719
0.324183
0.300654
0.583007
0.279739
0.265359
0.249673
0.108497
0.104575
0.105882
0.150327
0.295425
0.645752
0.243137
0.592157
0.356863
0.532026
0.101961
0.546405
0.4
0.628758
0.542484
0.639216
0.25098
0.622222
0.294118
0.317647
0.224837
0.141176
0.096732
0.163399
0.488889
0.264052
0.100654
0.566013
0.101961
0.628758
0.105882
0.101961
0.101961
0.101961
0.584314
0.586928
0.230065
0.25098
0.65098
0.101961
0.602614
0.501961
0.593464
0.603922
0.616993
0.602614
0.619608
0.611765
0.580392
0.648366
0.639216
0.188235
0.601307
0.644444
0.639216
0.627451
0.635294
0.539869
0.197386
0.627451
0.623529
0.606536
0.648366
0.636601
0.620915
0.619608
0.637908
0.606536
0.627451
0.633987
0.633987
0.594771
0.631373
0.603922
0.579085
0.626144
0.631373
0.584314
0.601307
0.601307
0.49281
0.611765
0.628758
0.618301
0.643137
0.6
0.551634
0.586928
0.551634
0.619608
0.566013
0.605229
0.588235
0.627451
0.603922
0.643137
0.602614
0.301961
0.606536
0.551634
0.660131
0.622222
0.622222
0.286275
0.30719
0.243137
0.626144
0.287582
0.627451
0.454902
0.615686
0.288889
0.564706
0.371242
0.30719
0.222222
0.186928
0.249673
0.322876
0.320261
0.304575
0.311111
0.301961
0.376471
0.324183
0.379085
0.401307
0.45098
0.465359
0.345098
0.279739
0.315033
0.299346
0.428758
0.245752
0.398693
0.368627
0.431373
0.381699
0.454902
0.487582
0.143791
0.377778
0.258824
0.324183
0.30719
0.36732
0.309804
0.294118
0.240523
0.335948
0.0954248
0.184314
0.444444
0.0954248
0.32549
0.0875817
0.150327
0.305882
0.164706
0.304575
0.303268
0.235294
0.281046
0.194771
0.249673
0.154248
0.24183
0.11634
0.105882
0.311111
0.11634
0.0954248
0.0862745
0.101961
0.101961
0.115033
0.180392
0.104575
0.101961
0.214379
0.338562
0.223529
0.216993
0.226144
0.0928105
0.0993464
0.484967
0.363399
0.36732
0.372549
0.593464
0.47451
0.628758
0.335948
0.360784
0.499346
0.124183
0.304575
0.141176
0.479739
0.278431
0.295425
0.60915
0.613072
0.589542
0.619608
0.618301
0.607843
0.566013
0.586928
0.559477
0.473203
0.581699
0.577778
0.539869
0.552941
0.593464
0.594771
0.576471
0.134641
0.579085
0.108497
0.559477
0.545098
0.513725
0.545098
0.461438
0.481046
0.529412
0.43268
0.509804
0.494118
0.479739
0.436601
0.512418
0.55817
0.439216
0.45098
0.487582
0.436601
0.453595
0.433987
0.410458
0.427451
0.43268
0.427451
0.406536
0.415686
0.457516
0.437908
0.415686
0.405229
0.427451
0.411765
0.436601
0.45098
0.415686
0.430065
0.401307
0.405229
0.401307
0.402614
0.414379
0.40915
0.418301
0.427451
0.401307
0.407843
0.407843
0.406536
0.396078
0.376471
0.410458
0.414379
0.418301
0.416993
0.410458
0.410458
0.43268
0.416993
0.410458
0.419608
0.420915
0.418301
0.411765
0.422222
0.413072
0.401307
0.430065
0.418301
0.430065
0.436601
0.440523
0.512418
0.44183
0.573856
0.448366
0.454902
0.427451
0.440523
0.422222
0.422222
0.419608
0.43268
0.422222
0.424837
0.420915
0.456209
0.433987
0.439216
0.413072
0.431373
0.426144
0.490196
0.484967
0.440523
0.430065
0.416993
0.424837
0.453595
0.439216
0.469281
0.528105
0.466667
0.479739
0.460131
0.096732
0.101961
0.50719
0.405229
0.101961
0.51634
0.462745
0.51634
0.501961
0.526797
0.470588
0.500654
0.55817
0.526797
0.511111
0.522876
0.498039
0.537255
0.0901961
0.522876
0.487582
0.529412
0.542484
0.513725
0.275817
0.23268
0.398693
0.0915033
0.0915033
0.470588
0.520261
0.101961
0.194771
0.101961
0.522876
0.101961
0.101961
0.132026
0.112418
0.15817
0.313725
0.100654
0.122876
0.12549
0.309804
0.337255
0.105882
0.270588
0.290196
0.447059
0.337255
0.100654
0.219608
0.112418
0.184314
0.264052
0.101961
0.129412
0.152941
0.256209
0.10719
0.101961
0.101961
0.101961
0.101961
0.269281
0.101961
0.101961
0.101961
0.137255
0.101961
0.101961
0.269281
0.189542
0.103268
0.101961
0.0915033
0.101961
0.101961
0.101961
0.101961
0.462745
0.461438
0.478431
0.566013
0.464052
0.278431
0.528105
0.538562
0.546405
0.529412
0.50719
0.515033
0.551634
0.521569
0.543791
0.105882
0.505882
0.521569
0.101961
0.201307
0.101961
0.101961
0.101961
0.101961
0.101961
0.101961
0.104575
0.29281
0.265359
0.305882
0.101961
0.273203
0.554248
0.517647
0.518954
0.542484
0.552941
0.55817
0.555556
0.569935
0.581699
0.532026
0.301961
0.101961
0.100654
0.322876
0.101961
0.51634
0.206536
0.112418
0.346405
0.262745
0.335948
0.20915
0.303268
0.414379
0.235294
0.415686
0.39085
0.369935
0.359477
0.343791
0.273203
0.388235
0.305882
0.328105
0.233987
0.109804
0.138562
0.435294
0.273203
0.155556
0.154248
0.236601
0.291503
0.423529
0.169935
0.388235
0.183007
0.142484
0.339869
0.228758
0.366013
0.403922
0.10719
0.128105
0.224837
0.467974
0.34902
0.203922
0.362092
0.175163
0.371242
0.294118
0.193464
0.332026
0.354248
0.240523
0.34902
0.384314
0.233987
0.286275
0.223529
0.198693
0.330719
0.172549
0.284967
0.19085
0.315033
0.189542
0.196078
0.418301
0.410458
0.317647
0.352941
0.342484
0.240523
0.308497
0.252288
0.401307
0.396078
0.180392
0.333333
0.356863
0.418301
0.423529
0.422222
0.260131
0.437908
0.227451
0.452288
0.194771
0.171242
0.12549
0.427451
0.15817
0.320261
0.426144
0.31634
0.341176
0.352941
0.335948
0.330719
0.210458
0.275817
0.34902
0.288889
0.281046
0.333333
0.339869
0.461438
0.227451
0.410458
0.393464
0.393464
0.393464
0.369935
0.396078
0.226144
0.333333
0.347712
0.368627
0.431373
0.383007
0.445752
0.414379
0.4
0.321569
0.324183
0.398693
0.342484
0.407843
0.351634
0.366013
0.397386
0.486275
0.484967
0.397386
0.461438
0.475817
0.414379
0.436601
0.40915
0.410458
0.186928
0.301961
0.265359
0.401307
0.447059
0.490196
0.226144
0.291503
0.267974
0.359477
0.30719
0.393464
0.34902
0.330719
0.291503
0.262745
0.24183
0.226144
0.386928
0.48366
0.511111
0.352941
0.364706
0.278431
0.326797
0.288889
0.413072
0.426144
0.330719
0.371242
0.318954
0.352941
0.594771
0.315033
0.51634
0.286275
0.551634
0.556863
0.309804
0.311111
0.351634
0.299346
0.530719
0.352941
0.622222
0.381699
0.532026
0.376471
0.458824
0.368627
0.54902
0.466667
0.431373
0.35817
0.443137
0.505882
0.454902
0.352941
0.458824
0.28366
0.295425
0.428758
0.384314
0.398693
0.372549
0.299346
0.376471
0.369935
0.426144
0.368627
0.415686
0.491503
0.418301
0.440523
0.393464
0.418301
0.360784
0.424837
0.406536
0.393464
0.415686
0.439216
0.377778
0.275817
0.345098
0.335948
0.36732
0.460131
0.24183
0.467974
0.105882
0.273203
0.179085
0.214379
0.219608
0.236601
0.180392
0.214379
0.426144
0.428758
0.278431
0.471895
0.101961
0.52549
0.499346
0.419608
0.452288
0.287582
0.322876
0.479739
0.467974
0.339869
0.449673
0.380392
0.469281
0.388235
0.380392
0.48366
0.580392
0.282353
0.440523
0.363399
0.258824
0.39085
0.496732
0.491503
0.48366
0.189542
0.52549
0.484967
0.430065
0.568627
0.416993
0.189542
0.477124
0.48366
0.501961
0.555556
0.592157
0.388235
0.486275
0.139869
0.359477
0.545098
0.495425
0.511111
0.343791
0.132026
0.243137
0.129412
0.185621
0.369935
0.413072
0.368627
0.386928
0.398693
0.496732
0.488889
0.405229
0.471895
0.456209
0.389542
0.405229
0.406536
0.372549
0.490196
0.402614
0.403922
0.426144
0.359477
0.418301
0.461438
0.482353
0.4
0.398693
0.449673
0.29281
0.457516
0.466667
0.453595
0.461438
0.467974
0.447059
0.466667
0.445752
0.486275
0.471895
0.479739
0.436601
0.466667
0.443137
0.426144
0.437908
0.362092
0.405229
0.445752
0.388235
0.433987
0.34902
0.398693
0.394771
0.39085
0.324183
0.396078
0.101961
0.101961
0.189542
0.360784
0.105882
0.100654
0.350327
0.372549
0.271895
0.360784
0.235294
0.101961
0.145098
0.101961
0.113725
0.101961
0.100654
0.311111
0.101961
0.101961
0.20915
0.101961
0.101961
0.117647
0.458824
0.101961
0.101961
0.101961
0.233987
0.101961
0.101961
0.101961
0.556863
0.309804
0.631373
0.177778
0.605229
0.286275
0.631373
0.622222
0.592157
0.573856
0.598693
0.556863
0.584314
0.588235
0.576471
0.631373
0.613072
0.658824
0.610458
0.606536
0.647059
0.287582
0.711111
0.690196
0.653595
0.708497
0.622222
0.678431
0.101961
0.684967
0.279739
0.701961
0.473203
0.428758
0.100654
0.25098
0.708497
0.248366
0.471895
0.291503
0.755556
0.386928
0.43268
0.517647
0.678431
0.665359
0.741176
0.694118
0.635294
0.695425
0.547712
0.687582
0.721569
0.75817
0.562092
0.739869
0.759477
0.755556
0.669281
0.43268
0.750327
0.436601
0.354248
0.36732
0.746405
0.294118
0.772549
0.733333
0.156863
0.462745
0.101961
0.118954
0.103268
0.117647
0.193464
0.101961
0.294118
0.103268
0.101961
0.171242
0.151634
0.55817
0.101961
0.101961
0.101961
0.101961
0.101961
0.101961
0.101961
0.101961
0.133333
0.322876
0.101961
0.101961
0.101961
0.104575
0.101961
0.101961
0.101961
0.105882
0.101961
0.096732
0.101961
0.101961
0.101961
0.101961
0.126797
0.678431
0.101961
0.101961
0.101961
0.101961
0.101961
0.10719
0.312418
0.124183
0.473203
0.341176
0.264052
0.0980392
0.203922
0.545098
0.180392
0.0980392
0.481046
0.843137
0.835294
0.552941
0.528105
0.844444
0.526797
0.443137
0.267974
0.508497
0.108497
0.15817
0.416993
0.312418
0.447059
0.360784
0.581699
0.345098
0.704575
0.440523
0.71634
0.686275
0.772549
0.743791
0.48366
0.579085
0.776471
0.705882
0.766013
0.775163
0.83268
0.766013
0.760784
0.793464
0.814379
0.828758
0.827451
0.830065
0.818301
0.827451
0.830065
0.843137
0.818301
0.771242
0.822222
0.80915
0.801307
0.764706