# vtk DataFile Version 1.0
Unstructured Grid Example
ASCII

DATASET UNSTRUCTURED_GRID
POINTS 8885 float
45 600 0
46 600 0
45 599 0
46 599 0
47 599 0
45 598 0
46 598 0
47 598 0
45 597 0
47 597 0
48 597 0
45 596 0
47 596 0
48 596 0
49 596 0
45 595 0
48 595 0
49 595 0
50 595 0
45 594 0
49 594 0
50 594 0
45 593 0
49 593 0
50 593 0
51 593 0
45 592 0
50 592 0
51 592 0
52 592 0
45 591 0
50 591 0
51 591 0
52 591 0
53 591 0
45 590 0
51 590 0
53 590 0
54 590 0
45 589 0
51 589 0
54 589 0
55 589 0
45 588 0
51 588 0
52 588 0
55 588 0
56 588 0
45 587 0
52 587 0
56 587 0
57 587 0
45 586 0
52 586 0
57 586 0
58 586 0
45 585 0
52 585 0
53 585 0
58 585 0
59 585 0
45 584 0
53 584 0
59 584 0
60 584 0
45 583 0
53 583 0
60 583 0
61 583 0
45 582 0
53 582 0
54 582 0
61 582 0
62 582 0
45 581 0
54 581 0
62 581 0
63 581 0
45 580 0
46 580 0
54 580 0
55 580 0
63 580 0
64 580 0
45 579 0
46 579 0
55 579 0
64 579 0
65 579 0
45 578 0
46 578 0
55 578 0
65 578 0
66 578 0
45 577 0
46 577 0
55 577 0
56 577 0
66 577 0
67 577 0
45 576 0
46 576 0
56 576 0
67 576 0
68 576 0
45 575 0
46 575 0
56 575 0
68 575 0
69 575 0
45 574 0
46 574 0
56 574 0
57 574 0
69 574 0
70 574 0
71 574 0
45 573 0
46 573 0
57 573 0
71 573 0
72 573 0
45 572 0
46 572 0
57 572 0
58 572 0
72 572 0
73 572 0
45 571 0
46 571 0
58 571 0
73 571 0
74 571 0
45 570 0
46 570 0
58 570 0
59 570 0
74 570 0
75 570 0
76 570 0
45 569 0
46 569 0
59 569 0
76 569 0
77 569 0
45 568 0
46 568 0
59 568 0
77 568 0
78 568 0
45 567 0
46 567 0
59 567 0
60 567 0
78 567 0
79 567 0
45 566 0
46 566 0
60 566 0
79 566 0
80 566 0
81 566 0
45 565 0
46 565 0
60 565 0
61 565 0
81 565 0
82 565 0
46 564 0
61 564 0
82 564 0
83 564 0
46 563 0
61 563 0
62 563 0
83 563 0
84 563 0
85 563 0
46 562 0
62 562 0
85 562 0
86 562 0
46 561 0
62 561 0
63 561 0
86 561 0
87 561 0
46 560 0
63 560 0
87 560 0
88 560 0
89 560 0
46 559 0
63 559 0
89 559 0
90 559 0
46 558 0
63 558 0
64 558 0
90 558 0
91 558 0
92 558 0
46 557 0
64 557 0
65 557 0
92 557 0
93 557 0
46 556 0
64 556 0
65 556 0
93 556 0
94 556 0
95 556 0
46 555 0
47 555 0
65 555 0
66 555 0
95 555 0
96 555 0
46 554 0
47 554 0
65 554 0
66 554 0
96 554 0
97 554 0
98 554 0
46 553 0
47 553 0
66 553 0
67 553 0
98 553 0
99 553 0
46 552 0
47 552 0
66 552 0
67 552 0
99 552 0
100 552 0
101 552 0
46 551 0
47 551 0
67 551 0
68 551 0
101 551 0
102 551 0
46 550 0
47 550 0
68 550 0
102 550 0
103 550 0
104 550 0
46 549 0
47 549 0
68 549 0
104 549 0
105 549 0
46 548 0
47 548 0
68 548 0
69 548 0
105 548 0
106 548 0
107 548 0
46 547 0
47 547 0
69 547 0
70 547 0
107 547 0
108 547 0
109 547 0
47 546 0
70 546 0
109 546 0
110 546 0
111 546 0
47 545 0
70 545 0
71 545 0
111 545 0
112 545 0
113 545 0
47 544 0
71 544 0
113 544 0
114 544 0
47 543 0
71 543 0
72 543 0
114 543 0
115 543 0
116 543 0
47 542 0
72 542 0
73 542 0
116 542 0
117 542 0
118 542 0
47 541 0
72 541 0
73 541 0
118 541 0
119 541 0
120 541 0
47 540 0
48 540 0
73 540 0
74 540 0
120 540 0
121 540 0
122 540 0
47 539 0
48 539 0
74 539 0
122 539 0
123 539 0
124 539 0
125 539 0
47 538 0
48 538 0
74 538 0
75 538 0
125 538 0
126 538 0
47 537 0
48 537 0
75 537 0
76 537 0
126 537 0
127 537 0
128 537 0
129 537 0
47 536 0
48 536 0
75 536 0
76 536 0
129 536 0
130 536 0
131 536 0
47 535 0
48 535 0
76 535 0
77 535 0
131 535 0
132 535 0
133 535 0
47 534 0
48 534 0
77 534 0
78 534 0
133 534 0
134 534 0
135 534 0
48 533 0
77 533 0
78 533 0
135 533 0
136 533 0
137 533 0
48 532 0
78 532 0
79 532 0
137 532 0
138 532 0
139 532 0
140 532 0
48 531 0
79 531 0
80 531 0
140 531 0
141 531 0
142 531 0
143 531 0
48 530 0
80 530 0
81 530 0
143 530 0
144 530 0
145 530 0
48 529 0
81 529 0
145 529 0
146 529 0
147 529 0
148 529 0
48 528 0
49 528 0
81 528 0
82 528 0
148 528 0
149 528 0
150 528 0
48 527 0
49 527 0
82 527 0
83 527 0
150 527 0
151 527 0
152 527 0
153 527 0
48 526 0
49 526 0
83 526 0
84 526 0
153 526 0
154 526 0
155 526 0
156 526 0
157 526 0
48 525 0
49 525 0
84 525 0
85 525 0
157 525 0
158 525 0
159 525 0
48 524 0
49 524 0
85 524 0
86 524 0
159 524 0
160 524 0
161 524 0
162 524 0
163 524 0
48 523 0
49 523 0
86 523 0
87 523 0
163 523 0
164 523 0
165 523 0
166 523 0
48 522 0
49 522 0
87 522 0
88 522 0
166 522 0
167 522 0
168 522 0
169 522 0
170 522 0
49 521 0
88 521 0
89 521 0
170 521 0
171 521 0
172 521 0
173 521 0
174 521 0
49 520 0
89 520 0
90 520 0
174 520 0
175 520 0
176 520 0
177 520 0
178 520 0
49 519 0
90 519 0
178 519 0
179 519 0
180 519 0
181 519 0
182 519 0
183 519 0
49 518 0
50 518 0
90 518 0
91 518 0
92 518 0
183 518 0
184 518 0
185 518 0
186 518 0
187 518 0
49 517 0
50 517 0
92 517 0
187 517 0
188 517 0
189 517 0
190 517 0
191 517 0
192 517 0
193 517 0
49 516 0
50 516 0
92 516 0
93 516 0
94 516 0
193 516 0
194 516 0
195 516 0
196 516 0
197 516 0
198 516 0
199 516 0
49 515 0
50 515 0
93 515 0
94 515 0
95 515 0
199 515 0
200 515 0
201 515 0
202 515 0
203 515 0
204 515 0
205 515 0
49 514 0
50 514 0
95 514 0
205 514 0
206 514 0
207 514 0
208 514 0
209 514 0
210 514 0
211 514 0
212 514 0
49 513 0
50 513 0
95 513 0
96 513 0
212 513 0
213 513 0
214 513 0
215 513 0
216 513 0
217 513 0
218 513 0
219 513 0
220 513 0
50 512 0
96 512 0
97 512 0
219 512 0
220 512 0
221 512 0
222 512 0
223 512 0
224 512 0
225 512 0
226 512 0
227 512 0
50 511 0
97 511 0
98 511 0
226 511 0
227 511 0
228 511 0
229 511 0
230 511 0
231 511 0
232 511 0
233 511 0
234 511 0
235 511 0
50 510 0
98 510 0
99 510 0
235 510 0
236 510 0
237 510 0
238 510 0
239 510 0
240 510 0
241 510 0
242 510 0
243 510 0
50 509 0
51 509 0
99 509 0
100 509 0
243 509 0
244 509 0
245 509 0
246 509 0
247 509 0
248 509 0
249 509 0
250 509 0
50 508 0
51 508 0
100 508 0
101 508 0
250 508 0
251 508 0
252 508 0
253 508 0
254 508 0
255 508 0
256 508 0
257 508 0
258 508 0
50 507 0
51 507 0
101 507 0
102 507 0
258 507 0
259 507 0
260 507 0
261 507 0
262 507 0
263 507 0
264 507 0
265 507 0
266 507 0
50 506 0
51 506 0
102 506 0
103 506 0
266 506 0
267 506 0
268 506 0
269 506 0
270 506 0
271 506 0
272 506 0
273 506 0
50 505 0
51 505 0
103 505 0
104 505 0
273 505 0
274 505 0
275 505 0
276 505 0
277 505 0
278 505 0
279 505 0
280 505 0
281 505 0
51 504 0
104 504 0
281 504 0
282 504 0
283 504 0
284 504 0
285 504 0
286 504 0
287 504 0
51 503 0
104 503 0
105 503 0
106 503 0
287 503 0
288 503 0
289 503 0
290 503 0
291 503 0
292 503 0
293 503 0
294 503 0
51 502 0
105 502 0
106 502 0
294 502 0
295 502 0
296 502 0
297 502 0
298 502 0
299 502 0
300 502 0
51 501 0
106 501 0
107 501 0
300 501 0
301 501 0
302 501 0
303 501 0
304 501 0
305 501 0
306 501 0
51 500 0
52 500 0
107 500 0
108 500 0
306 500 0
307 500 0
308 500 0
309 500 0
310 500 0
311 500 0
312 500 0
51 499 0
52 499 0
108 499 0
109 499 0
312 499 0
313 499 0
314 499 0
315 499 0
316 499 0
317 499 0
318 499 0
51 498 0
52 498 0
109 498 0
110 498 0
317 498 0
318 498 0
319 498 0
320 498 0
321 498 0
322 498 0
323 498 0
51 497 0
52 497 0
110 497 0
111 497 0
323 497 0
324 497 0
325 497 0
326 497 0
327 497 0
328 497 0
51 496 0
52 496 0
110 496 0
111 496 0
112 496 0
181 496 0
182 496 0
183 496 0
328 496 0
329 496 0
330 496 0
331 496 0
332 496 0
333 496 0
52 495 0
112 495 0
178 495 0
179 495 0
180 495 0
181 495 0
182 495 0
183 495 0
333 495 0
334 495 0
335 495 0
336 495 0
337 495 0
52 494 0
112 494 0
113 494 0
176 494 0
177 494 0
178 494 0
181 494 0
182 494 0
337 494 0
338 494 0
339 494 0
340 494 0
341 494 0
342 494 0
52 493 0
113 493 0
114 493 0
173 493 0
174 493 0
175 493 0
176 493 0
180 493 0
181 493 0
342 493 0
343 493 0
344 493 0
345 493 0
346 493 0
347 493 0
52 492 0
53 492 0
114 492 0
115 492 0
171 492 0
172 492 0
173 492 0
174 492 0
179 492 0
180 492 0
347 492 0
348 492 0
349 492 0
350 492 0
351 492 0
52 491 0
53 491 0
115 491 0
116 491 0
168 491 0
169 491 0
170 491 0
171 491 0
178 491 0
179 491 0
351 491 0
352 491 0
353 491 0
354 491 0
355 491 0
52 490 0
53 490 0
116 490 0
166 490 0
167 490 0
168 490 0
177 490 0
178 490 0
355 490 0
356 490 0
357 490 0
358 490 0
359 490 0
52 489 0
53 489 0
116 489 0
117 489 0
164 489 0
165 489 0
166 489 0
167 489 0
176 489 0
177 489 0
359 489 0
360 489 0
361 489 0
362 489 0
363 489 0
53 488 0
117 488 0
118 488 0
161 488 0
162 488 0
163 488 0
164 488 0
175 488 0
176 488 0
363 488 0
364 488 0
365 488 0
366 488 0
367 488 0
53 487 0
117 487 0
118 487 0
159 487 0
160 487 0
161 487 0
174 487 0
175 487 0
367 487 0
368 487 0
369 487 0
370 487 0
53 486 0
54 486 0
113 486 0
114 486 0
115 486 0
116 486 0
117 486 0
157 486 0
158 486 0
159 486 0
173 486 0
174 486 0
370 486 0
371 486 0
372 486 0
373 486 0
374 486 0
375 486 0
53 485 0
54 485 0
107 485 0
108 485 0
109 485 0
110 485 0
111 485 0
112 485 0
113 485 0
154 485 0
155 485 0
156 485 0
157 485 0
172 485 0
173 485 0
375 485 0
376 485 0
377 485 0
378 485 0
53 484 0
54 484 0
103 484 0
104 484 0
105 484 0
106 484 0
107 484 0
151 484 0
152 484 0
153 484 0
154 484 0
172 484 0
378 484 0
379 484 0
380 484 0
381 484 0
53 483 0
54 483 0
98 483 0
99 483 0
100 483 0
101 483 0
102 483 0
103 483 0
149 483 0
150 483 0
151 483 0
170 483 0
171 483 0
172 483 0
381 483 0
382 483 0
383 483 0
384 483 0
53 482 0
54 482 0
93 482 0
94 482 0
95 482 0
96 482 0
97 482 0
98 482 0
146 482 0
147 482 0
148 482 0
149 482 0
170 482 0
384 482 0
385 482 0
386 482 0
387 482 0
54 481 0
87 481 0
88 481 0
89 481 0
90 481 0
91 481 0
92 481 0
93 481 0
144 481 0
145 481 0
146 481 0
169 481 0
170 481 0
387 481 0
388 481 0
389 481 0
390 481 0
391 481 0
54 480 0
83 480 0
84 480 0
85 480 0
86 480 0
87 480 0
88 480 0
141 480 0
142 480 0
143 480 0
144 480 0
168 480 0
169 480 0
391 480 0
392 480 0
393 480 0
394 480 0
54 479 0
55 479 0
83 479 0
84 479 0
85 479 0
86 479 0
87 479 0
88 479 0
89 479 0
90 479 0
91 479 0
92 479 0
139 479 0
140 479 0
141 479 0
167 479 0
168 479 0
394 479 0
395 479 0
396 479 0
397 479 0
54 478 0
55 478 0
92 478 0
93 478 0
94 478 0
95 478 0
96 478 0
97 478 0
98 478 0
99 478 0
100 478 0
101 478 0
102 478 0
103 478 0
104 478 0
105 478 0
106 478 0
107 478 0
108 478 0
109 478 0
110 478 0
111 478 0
112 478 0
113 478 0
114 478 0
115 478 0
116 478 0
117 478 0
118 478 0
119 478 0
120 478 0
121 478 0
122 478 0
137 478 0
138 478 0
139 478 0
[...]
CELL_DATA 8885
COLOR_SCALARS lut 1
0.0828889
0.081898
0.082214
0.0811015
0.0806061
0.0813051
0.0800661
0.0794555
0.0802188
0.0781193
0.0780106
0.0790199
0.0766663
0.0764364
0.0768122
0.0777744
0.0748077
0.0750559
0.0758854
0.0765437
0.0733001
0.0739898
0.0753809
0.0716008
0.0721404
0.0732265
0.074329
0.0703864
0.0713052
0.0727372
0.0734212
0.0687684
0.0695116
0.0707588
0.072486
0.0726815
0.0678811
0.0704624
0.0724394
0.0721261
0.0664418
0.0703838
0.0725751
0.0717654
0.0652162
0.0658786
0.0705057
0.0728875
0.0716026
0.0646896
0.0708257
0.0733841
0.0716339
0.0637449
0.0713519
0.0740779
0.0718512
0.0630504
0.0635634
0.0720957
0.074983
0.0722468
0.0629417
0.0730685
0.0761105
0.072814
0.0625861
0.0742756
0.0774639
0.0735456
0.0624941
0.0628618
0.0757142
0.0790367
0.0744332
0.0628709
0.0773725
0.0808148
0.0754649
0.0723527
0.0631406
0.0635399
0.0792323
0.0827769
0.0766245
0.073473
0.0639105
0.081269
0.084897
0.0778916
0.0747106
0.0645205
0.0834556
0.0871472
0.0792475
0.0760468
0.0653499
0.0656461
0.0857664
0.0895003
0.0806793
0.0774681
0.066555
0.0881771
0.0919317
0.0821789
0.0789655
0.0676595
0.0906657
0.0944191
0.083741
0.0805328
0.0689436
0.0691633
0.093213
0.0969437
0.100914
0.0853617
0.0821652
0.0705098
0.0994906
0.103402
0.0870358
0.0838564
0.0720187
0.0722756
0.102052
0.105896
0.0887554
0.0855978
0.0738313
0.104627
0.1084
0.0905128
0.0873807
0.075528
0.0758172
0.107219
0.110915
0.114808
0.0923026
0.089199
0.0775444
0.11344
0.117239
0.0941211
0.0910479
0.0793914
0.115976
0.119682
0.0959642
0.0929226
0.0813445
0.0815703
0.118531
0.122147
0.0978271
0.0948175
0.0835305
0.121115
0.124641
0.128355
0.0997045
0.0967266
0.0855792
0.0858357
0.127167
0.130784
0.0986453
0.0878751
0.129728
0.133248
0.100572
0.0899868
0.0902744
0.132329
0.13575
0.139353
0.102505
0.0923638
0.13829
0.141783
0.104444
0.0945161
0.0948385
0.140864
0.144244
0.106384
0.0969638
0.143473
0.146735
0.150162
0.108323
0.0991509
0.149248
0.152536
0.110266
0.101404
0.101677
0.151776
0.154914
0.158193
0.112215
0.103915
0.104318
0.157287
0.160394
0.114177
0.106236
0.106544
0.159646
0.162577
0.165635
0.116154
0.113977
0.108855
0.109293
0.164741
0.167618
0.118146
0.115982
0.11125
0.111585
0.166889
0.169586
0.17241
0.120153
0.118002
0.113959
0.114421
0.171541
0.174184
0.122171
0.120033
0.116411
0.116758
0.173489
0.175953
0.178548
0.1242
0.122074
0.119167
0.119635
0.177722
0.180137
0.12624
0.124127
0.121986
0.179498
0.181737
0.18411
0.128291
0.126188
0.124401
0.183361
0.185562
0.130348
0.128256
0.126881
0.127191
0.185021
0.187059
0.189238
0.132412
0.130327
0.129594
0.130011
0.188616
0.19064
0.19281
0.1324
0.13233
0.192122
0.19414
0.19631
0.134476
0.134726
0.135089
0.195568
0.197595
0.199781
0.136555
0.137399
0.198998
0.201051
0.138637
0.139799
0.140091
0.200536
0.202464
0.204563
0.140724
0.142411
0.142807
0.204034
0.206013
0.208157
0.14282
0.14484
0.145046
0.207628
0.209644
0.211815
0.144931
0.143501
0.147398
0.147702
0.2113
0.213332
0.215505
0.147059
0.145618
0.149972
0.215017
0.217036
0.219174
0.221422
0.149204
0.14775
0.152365
0.152553
0.220688
0.222751
0.151361
0.149893
0.154855
0.155128
0.222351
0.22423
0.226202
0.228264
0.153527
0.152044
0.157288
0.157332
0.227641
0.229508
0.23146
0.1557
0.1542
0.159671
0.159789
0.230903
0.232655
0.234482
0.15788
0.15636
0.162026
0.162212
0.233998
0.235613
0.237282
0.158524
0.16441
0.16434
0.23688
0.238309
0.239758
0.160694
0.166615
0.1666
0.239442
0.240606
0.241737
0.242801
0.162873
0.16876
0.168795
0.242291
0.242973
0.243522
0.243908
0.165063
0.170836
0.170918
0.243199
0.243116
0.242835
0.167269
0.172837
0.242208
0.241442
0.240482
0.239341
0.169493
0.168528
0.174923
0.174749
0.238521
0.236943
0.235227
0.171736
0.170732
0.176707
0.176561
0.234502
0.232401
0.230205
0.227934
0.173992
0.172949
0.178385
0.178261
0.227055
0.22447
0.221849
0.219213
0.216586
0.176257
0.175173
0.179946
0.179837
0.215323
0.212481
0.209691
0.178526
0.177399
0.181376
0.181274
0.208554
0.205593
0.202708
0.199904
0.197185
0.180793
0.17962
0.182655
0.182551
0.195719
0.192866
0.190106
0.187444
0.183055
0.181834
0.183756
0.183642
0.185904
0.183139
0.180487
0.17796
0.175571
0.184038
0.184646
0.184514
0.173807
0.17139
0.16914
0.167067
0.16518
0.186231
0.185288
0.18513
0.163303
0.161463
0.159824
0.158388
0.157159
0.188417
0.185638
0.155305
0.154175
0.153261
0.152564
0.152087
0.151836
0.190597
0.189935
0.186232
0.185648
0.185423
0.15006
0.149961
0.150104
0.150493
0.151133
0.192768
0.192048
0.185272
0.149665
0.150495
0.151575
0.152905
0.15448
0.156299
0.158355
0.194923
0.194143
0.185141
0.184473
0.184174
0.157202
0.159438
0.161897
0.164568
0.167441
0.170508
0.173767
0.19705
0.196207
0.183929
0.183222
0.18289
0.172994
0.176382
0.179954
0.183704
0.187622
0.191697
0.195918
0.199134
0.198226
0.181503
0.195516
0.199796
0.204197
0.208709
0.21332
0.218027
0.222828
0.227728
0.201159
0.200183
0.180083
0.179312
0.227536
0.23244
0.237445
0.242546
0.247734
0.252997
0.258324
0.263706
0.269133
0.202067
0.177449
0.176659
0.263642
0.26896
0.274312
0.279682
0.285055
0.290413
0.295743
0.301031
0.306262
0.203869
0.174362
0.173566
0.30106
0.306181
0.311226
0.31617
0.320978
0.325613
0.330032
0.334194
0.338058
0.341585
0.205584
0.170849
0.170064
0.341472
0.34451
0.34714
0.349336
0.35108
0.352378
0.353248
0.353722
0.353836
0.207203
0.206716
0.166945
0.166189
0.353606
0.353276
0.352659
0.351789
0.350699
0.34942
0.347982
0.346417
0.208716
0.208146
0.162693
0.161988
0.346195
0.344411
0.342549
0.340625
0.338651
0.336634
0.334582
0.332502
0.330402
0.210102
0.209446
0.158143
0.157514
0.330099
0.327874
0.325644
0.323413
0.321181
0.318944
0.316701
0.314452
0.312198
0.211335
0.21059
0.15335
0.152823
0.311794
0.30942
0.307045
0.304676
0.302311
0.299953
0.297605
0.295274
0.212386
0.211548
0.148373
0.147972
0.294852
0.292421
0.290014
0.287634
0.285276
0.282937
0.280615
0.278313
0.276038
0.212288
0.143274
0.275438
0.273072
0.270748
0.268473
0.266251
0.264088
0.261991
0.212781
0.138626
0.138118
0.138036
0.261432
0.259285
0.257218
0.255237
0.253347
0.251549
0.249845
0.248238
0.213006
0.133293
0.132968
0.247605
0.245974
0.244442
0.243008
0.241672
0.240436
0.239302
0.212948
0.128006
0.127881
0.238706
0.237554
0.236514
0.235592
0.234793
0.234126
0.2336
0.212614
0.212033
0.122817
0.122909
0.233027
0.232521
0.232171
0.23198
0.231949
0.23208
0.232373
0.212016
0.211316
0.117778
0.118105
0.231813
0.232139
0.232633
0.233299
0.234137
0.23515
0.236335
0.211177
0.210354
0.112942
0.113523
0.234726
0.235778
0.236995
0.238371
0.239895
0.241562
0.243368
0.21012
0.209172
0.108373
0.109228
0.242931
0.244733
0.246671
0.24874
0.250938
0.253264
0.208874
0.207797
0.10343
0.10414
0.105288
0.118544
0.122597
0.126962
0.252908
0.255209
0.257637
0.26019
0.26287
0.265678
0.206259
0.100321
0.105679
0.108866
0.112459
0.116426
0.120738
0.125365
0.265355
0.268135
0.271049
0.2741
0.277287
0.204591
0.0956473
0.0969953
0.0977086
0.100214
0.103186
0.114625
0.119177
0.27713
0.280286
0.283574
0.286991
0.290532
0.294193
0.202833
0.0925426
0.0942399
0.0900805
0.0912739
0.0929836
0.0952008
0.108751
0.113172
0.294015
0.297622
0.301346
0.305183
0.309132
0.313194
0.201023
0.200174
0.090061
0.0921239
0.0862204
0.0865844
0.0874529
0.0888363
0.103237
0.10747
0.312951
0.316945
0.321054
0.325277
0.32961
0.199196
0.198206
0.0882641
0.0907003
0.0849006
0.0840576
0.0836555
0.0837198
0.0981946
0.102189
0.329441
0.333693
0.338049
0.342504
0.347052
0.197382
0.19625
0.0871928
0.0848433
0.0834119
0.082353
0.09372
0.0974318
0.346924
0.351367
0.355899
0.360516
0.365213
0.195609
0.194336
0.0841115
0.086859
0.0858726
0.084005
0.0824358
0.0812002
0.0898831
0.0932818
0.365099
0.36967
0.374309
0.379009
0.383757
0.192491
0.0841532
0.0872408
0.0901129
0.0877193
0.0855407
0.0836013
0.0867272
0.0897953
0.383634
0.388212
0.392812
0.397418
0.402013
0.190745
0.081879
0.0849011
0.0927696
0.0901899
0.0877883
0.0842621
0.086996
0.401849
0.4062
0.410505
0.414743
0.189126
0.188175
0.071907
0.0733869
0.0752305
0.0774467
0.0800357
0.0958761
0.0931657
0.0905998
0.0824663
0.0848745
0.414726
0.418652
0.422456
0.426104
0.429558
0.432781
0.187654
0.186565
0.0679807
0.0677584
0.067787
0.0680728
0.0686277
0.0694691
0.0706182
0.1022
0.0993406
0.0965616
0.0938862
0.0812924
0.0833929
0.432415
0.435135
0.437552
0.439633
0.186341
0.185118
0.069805
0.068684
0.0678166
0.0671982
0.0668238
0.108734
0.105884
0.103061
0.100282
0.0824915
0.43932
0.440786
0.441865
0.44255
0.185193
0.183838
0.0779634
0.0755302
0.073408
0.071582
0.070038
0.0687624
0.11242
0.109693
0.106958
0.0805417
0.0820984
0.0840969
0.442252
0.442295
0.441971
0.441313
0.184216
0.182733
0.0940437
0.089887
0.0861129
0.0827195
0.0796944
0.0770195
0.118552
0.116085
0.113548
0.110963
0.0821392
0.441023
0.439816
0.438345
0.436646
0.181808
0.124554
0.118815
0.11322
0.107828
0.102695
0.0978723
0.0934003
0.121796
0.119628
0.117351
0.0825452
0.0840631
0.43637
0.434227
0.431919
0.42948
0.426937
0.181074
0.147373
0.141677
0.135902
0.130098
0.124322
0.118633
0.126306
0.124731
0.122953
0.121009
0.0832552
0.0845622
0.426423
0.423548
0.420614
0.417641
0.180544
0.179415
0.147624
0.141998
0.136288
0.130544
0.124825
0.119187
0.113689
0.108392
0.103354
0.0986277
0.12816
0.127175
0.125911
0.0842168
0.0853286
0.417131
0.41388
0.410617
0.407357
0.180228
0.178985
0.10011
0.0957796
0.0918283
0.0882683
0.0850987
0.0823076
0.0798768
0.0777857
0.0760138
0.0745415
0.07335
0.072421
0.0717394
0.0712914
0.0710638
0.0710435
0.0712166
0.0715708
0.0720994
0.0728026
0.0736877
0.074766
0.0760511
0.0775558
0.0792901
0.08126
0.0834664
0.0859024
0.0885527
0.0913955
0.0944055
0.129199
0.12893
0.128308
0.0853879
0.0863148
0.406836
0.40333
0.399845
0.396394
0.180129
0.178775
0.0934691
0.0963545
0.0993722
0.102485
0.105649
0.108814
0.111932
0.114956
0.11784
0.120532
0.122978
0.125122
0.126913
0.12831
0.129285
0.129831
0.129964
0.0867405
0.0874849
0.395839
0.392165
0.388539
0.384968
0.180249
0.178787
0.0882638
0.0888176
0.384357
0.380583
0.37688
0.179018
0.0899661
0.0903098
0.376465
0.372568
0.368752
0.365021
0.179466
0.091873
0.0919766
0.364519
0.360601
0.356774
0.353042
0.180126
0.179076
0.0940262
0.0938504
0.352435
0.348521
0.344702
0.340982
0.180992
0.179845
0.096481
0.0959829
0.340249
0.336346
0.332542
0.18205
0.180809
0.0993038
0.0984409
0.331948
0.327961
0.324077
0.320303
0.18329
0.181953
0.102567
0.101302
0.31955
0.315608
0.311795
0.183269
0.104647
0.103385
0.31116
0.3072
0.303391
0.18475
0.110678
0.108548
0.106823
0.302872
0.298931
0.295146
0.291515
0.186398
0.113061
0.290818
0.287051
0.283431
0.279959
0.188213
0.187226
0.115561
0.113286
0.279064
0.275446
0.271974
0.190195
0.189111
0.115815
0.113884
0.271157
0.267542
0.264081
0.192344
0.191159
0.116437
0.11489
0.263328
0.259729
0.256289
0.193368
0.119121
0.117463
0.255588
0.252011
0.248599
0.245358
0.195734
0.1951
0.120178
0.11891
0.244385
0.241016
0.237833
0.198251
0.197516
0.121642
0.120765
0.236871
0.233581
0.230507
0.200909
0.200069
0.123485
0.122983
0.21603
0.221112
0.226243
0.229542
0.226395
0.223502
0.203693
0.202746
0.125648
0.198179
0.203572
0.208948
0.21431
0.219678
0.225078
0.222523
0.219598
0.216967
0.206589
0.20553
0.128398
0.128033
0.184622
0.190345
0.196073
0.207478
0.213144
0.215971
0.213351
0.211059
0.20841
0.130609
0.130522
0.176395
0.182409
0.18846
0.194518
0.20056
0.20657
0.210049
0.207805
0.205911
0.211372
0.132842
0.132983
0.156023
0.162
0.168144
0.174408
0.187139
0.193531
0.204895
0.203071
0.201607
0.214406
0.213766
0.134962
0.135278
0.141764
0.147564
0.153633
0.172991
0.179671
0.186393
0.200592
0.199209
0.198192
0.217501
0.216735
0.136818
0.136827
0.137265
0.128149
0.133549
0.139325
0.14543
0.165228
0.172156
0.179172
0.197186
0.196258
0.195695
0.220645
0.21975
0.138301
0.115651
0.120438
0.125698
0.150587
0.157527
0.164652
0.194704
0.19423
0.194113
0.222798
0.139104
0.139268
0.104692
0.10869
0.113231
0.142938
0.149961
0.157224
0.193141
0.193104
0.193415
0.225867
0.225489
0.139456
0.13964
0.0955371
0.0986561
0.102345
0.128871
0.13556
0.142603
0.192463
0.192844
0.193568
0.228941
0.228425
0.139187
0.139367
0.0865416
0.0882523
0.0904946
0.0932918
0.12195
0.128533
0.192635
0.193426
0.194562
0.231999
0.231343
0.138268
0.138428
0.081731
0.082711
0.0841629
0.10962
0.11552
0.121932
0.193646
0.194849
0.235016
0.234215
0.136705
0.136836
0.0782927
0.0786692
0.0794563
0.10403
0.109653
0.194226
0.195496
0.197106
0.237014
0.134534
0.0759779
0.0758649
0.0761098
0.0990972
0.104407
0.196497
0.198162
0.200161
0.239708
0.2394
0.132084
0.131827
0.0753696
0.0745725
0.0740664
0.073873
0.090453
0.0948427
0.0998193
0.199561
0.201605
0.203981
0.242264
0.241799
0.128938
0.128673
0.0749444
0.0738829
0.0730715
0.0871993
0.0912648
0.203378
0.205789
0.208533
0.244638
0.244013
0.12542
0.125169
0.0749782
0.073726
0.0726897
0.081348
0.0845817
0.088343
0.207914
0.210688
0.246787
0.245997
0.121625
0.121415
0.075335
0.0739501
0.072754
0.0795677
0.0825572
0.210347
0.213151
0.216293
0.247709
0.117656
0.11752
0.0759245
0.0744442
0.0731349
0.0759508
0.078298
0.0810767
0.215916
0.219085
0.222595
0.249109
0.248766
0.113625
0.113606
0.0783847
0.0766889
0.0751398
0.0737467
0.0734579
0.0752853
0.0774878
0.222169
0.225702
0.250163
0.249639
0.109654
0.1098
0.0793145
0.0775814
0.0759862
0.0745342
0.0732604
0.0749989
0.0770867
0.225537
0.22909
0.232984
0.25084
0.250132
0.105874
0.106237
0.080342
0.0785776
0.0769463
0.0733739
0.0750466
0.0770456
0.232747
0.23665
0.251126
0.25023
0.102421
0.0814503
0.0796662
0.0780059
0.0724181
0.0737592
0.0753876
0.236663
0.240568
0.244803
0.249938
0.0989261
0.0994353
0.100392
0.0826099
0.0808214
0.0791482
0.0775943
0.0730448
0.0743805
0.244724
0.248944
0.253481
0.249282
0.248787
0.0970539
0.098384
0.0857244
0.08382
0.0820257
0.0803455
0.072765
0.073865
0.0752078
0.253298
0.257807
0.248301
0.24761
0.0953967
0.0971416
0.0869701
0.0850722
0.0832795
0.073734
0.0748602
0.257854
0.262334
0.267132
0.247036
0.246147
0.0945586
0.0967442
0.0882348
0.0863477
0.0845632
0.0739137
0.0748592
0.0760167
0.267055
0.271821
0.244445
0.0946046
0.0972379
0.0895019
0.0876314
0.0858599
0.0751348
0.0761279
0.271961
0.276694
0.281744
0.242551
0.242041
0.0955647
0.0907605
0.088909
0.0871542
0.0756219
0.0764813
0.0775273
0.281738
0.286744
0.240512
0.239801
0.0917346
0.0943657
0.0920026
0.0901724
0.0884369
0.0770139
0.07794
0.0790445
0.286938
0.291898
0.238372
0.237459
0.0870039
0.0887728
0.090982
0.0951414
0.093231
0.0914182
0.0897015
0.0776682
0.0784975
0.0794956
0.292285
0.297195
0.302413
0.235054
0.0841853
0.0851926
0.0865975
0.0884178
0.0963615
0.0944596
0.092656
0.0791537
0.0800597
0.0811336
0.302619
0.307765
0.232619
0.232067
0.0826443
0.0828014
0.0832395
0.0839952
0.0975921
0.0956934
0.0938951
0.0798913
0.0807089
0.0816917
0.308151
0.31322
0.318573
0.230186
0.22943
0.0826289
0.0823833
0.0822875
0.0823798
0.100897
0.0988645
0.0969475
0.095141
0.0814259
0.0823239
0.318768
0.324028
0.227777
0.226816
0.0827772
0.0824849
0.0822551
0.0821072
0.102345
0.100249
0.0982774
0.0821895
0.0830094
0.083989
0.3244
0.329559
0.334974
0.22424
0.0825482
0.082366
0.0821942
0.0820431
0.0819234
0.104006
0.101826
0.0997698
0.0978428
0.0837285
0.084632
0.335144
0.34043
0.221716
0.0811578
0.0811592
0.081169
0.081182
0.0811964
0.105939
0.103662
0.101505
0.0852962
0.0862849
0.214022
0.213938
0.340759
0.345902
0.351265
0.219257
0.218423
0.0788893
0.0789575
0.079046
0.0791577
0.0792938
0.0794515
0.108198
0.10582
0.103552
0.0859481
0.0868772
0.0879571
0.214698
0.214087
0.213855
0.214042
0.346377
0.351357
0.356535
0.216874
0.215831
0.076213
0.076325
0.0764718
0.0766454
0.0768401
0.110813
0.108346
0.105971
0.0865275
0.0874178
0.0884515
0.215038
0.214446
0.214152
0.214214
0.356746
0.361709
0.214576
0.213324
0.0737286
0.0736854
0.0737026
0.073782
0.073922
0.0741163
0.113809
0.11127
0.108803
0.0878449
0.0888486
0.215948
0.215392
0.214954
0.214713
0.214743
0.362014
0.366731
0.210913
0.0721889
0.07199
0.0718212
0.0716891
0.0716005
0.0715609
0.0715743
0.119755
0.117174
0.114605
0.112074
0.0890921
0.0902148
0.0914828
0.215725
0.215565
0.215423
0.215373
0.215491
0.367098
0.371527
0.376051
0.208617
0.207673
0.0709296
0.0706573
0.0704342
0.0702502
0.0700985
0.0699738
0.0698765
0.120835
0.118313
0.115775
0.0891382
0.0902402
0.0914895
0.21499
0.215355
0.215647
0.215931
0.376005
0.380143
0.206453
0.205301
0.0720179
0.071159
0.0704532
0.0698874
0.0694467
0.069113
0.0688643
0.126853
0.124632
0.122277
0.119833
0.0889489
0.0900256
0.091257
0.212384
0.213576
0.214571
0.21542
0.216173
0.38007
0.383776
0.204442
0.203083
0.0790393
0.0769533
0.0751364
0.0735668
0.0722232
0.0710852
0.0701322
0.130105
0.128301
0.126279
0.0895448
0.0907456
0.0921098
0.207176
0.209388
0.21134
0.214555
0.215896
0.383637
0.386875
0.201038
0.0966046
0.0924756
0.0887372
0.0853848
0.0824023
0.0797665
0.0774503
0.133736
0.132807
0.131562
0.130028
0.0899478
0.09127
0.202479
0.205452
0.208184
0.2129
0.214921
0.38663
0.389374
0.199188
0.198128
0.126573
0.120803
0.115192
0.109796
0.104669
0.0998605
0.0954085
0.135018
0.134771
0.134184
0.0888996
0.0901418
0.0915773
0.19691
0.20059
0.210345
0.21311
0.38899
0.391221
0.393452
0.19755
0.196288
0.16478
0.159752
0.154443
0.148907
0.143207
0.137406
0.131574
0.125776
0.135555
0.135961
0.136046
0.088804
0.0901246
0.186166
0.190565
0.194873
0.206831
0.210376
0.392383
0.394108
0.196139
0.194676
0.183259
0.180238
0.176832
0.173014
0.168792
0.164196
0.0714487
0.0719809
0.0725573
0.0731793
0.0738487
0.0745665
0.0753292
0.0761283
0.0769529
0.0777941
0.0786468
0.0795108
0.0803887
0.0812837
0.0821983
0.0831328
0.0840846
0.0850477
0.086016
0.0869877
0.0879657
0.0889554
0.0899634
0.0909959
0.0920586
0.093154
0.0942825
0.095445
0.0966469
0.0978974
0.0992074
0.100588
0.102047
0.10359
0.105219
0.106935
0.108739
0.110631
0.112604
0.114648
0.116747
0.118882
0.121033
0.123177
0.125289
0.127339
0.129296
0.131127
0.132797
0.13427
0.135514
0.136497
0.137196
0.0874286
0.0885463
0.0899131
0.178711
0.183567
0.197855
0.202368
0.206682
0.392853
0.394105
0.193302
0.192336
0.192203
0.190052
0.18785
0.185506
0.182924
0.180018
0.176727
0.173022
0.16891
0.164418
0.159586
0.154464
0.149107
0.143577
0.137939
0.13226
0.126607
0.121043
0.115626
0.110414
0.105462
0.100818
0.0965209
0.0925973
0.0890576
0.0858992
0.0831076
0.0806615
0.0785354
0.0767038
0.0751428
0.0738296
0.0727425
0.0718617
0.071168
0.0706451
0.0702787
0.0700553
0.0699607
0.0699793
0.0700922
0.07028
0.0705252
0.0708146
0.07114
0.0714969
0.0718852
0.0723068
0.072765
0.0732625
0.0738013
0.0743815
0.0750033
0.0871048
0.0881834
0.0895496
0.170834
0.176051
0.191866
0.197027
0.392661
0.39349
0.192171
0.19101
0.192143
0.190118
0.188041
0.185822
0.0862239
0.0868375
0.0878059
0.157359
0.162659
0.168146
0.1852
0.190918
0.391864
0.392332
0.191284
0.189931
0.0863929
0.0867607
0.148933
0.154317
0.177989
0.184169
0.390533
0.390701
0.189097
0.0869948
0.0870279
0.135591
0.140569
0.145943
0.170366
0.176912
0.388744
0.388673
0.188506
0.187462
0.0890633
0.0881863
0.0878018
0.127561
0.132382
0.162455
0.169279
0.386573
0.386324
0.188158
0.18693
0.0933387
0.0914882
0.0901122
0.115821
0.119883
0.124482
0.147624
0.154378
0.161396
0.384094
0.383722
0.188052
0.18664
0.0947894
0.108905
0.112647
0.139495
0.146262
0.153379
0.381377
0.380934
0.186591
0.0965959
0.0946391
0.0931943
0.102544
0.105932
0.131561
0.138245
0.378485
0.378015
0.186786
0.185696
0.0967563
0.0952603
0.0943775
0.0967847
0.0998012
0.123938
0.130457
0.375474
0.375015
0.187226
0.185956
0.0976963
0.0967009
0.0881911
0.0896256
0.0916548
0.116739
0.123018
0.37239
0.371976
0.18791
0.186462
0.0994474
0.0989667
0.0843934
0.0854932
0.0871644
0.110059
0.116038
0.369277
0.187211
0.186275
0.102
0.102027
0.0811417
0.0819467
0.0989697
0.103976
0.10961
0.366867
0.366169
0.365918
0.188203
0.187091
0.105313
0.105826
0.0783162
0.078385
0.0789377
0.0985435
0.3631
0.189435
0.188147
0.109322
0.110293
0.111841
0.0761849
0.0760687
0.0895334
0.0937787
0.0986501
0.360588
0.360096
0.189438
0.18867
0.115345
0.117309
0.0750777
0.0744056
0.07414
0.0857853
0.0896688
0.357542
0.357176
0.19096
0.190015
0.120896
0.0736981
0.0729318
0.0725497
0.0826338
0.0861804
0.354577
0.35435
0.192705
0.191581
0.124712
0.126859
0.129533