# vtk DataFile Version 1.0
Unstructured Grid Example
ASCII

DATASET UNSTRUCTURED_GRID
POINTS 808 float
105 318 0
355 311 0
93 340 0
0 416 0
73 611 0
176 443 0
629 130 0
468 162 0
415 403 0
645 86 0
762 43 0
691 32 0
3 1 0
0 7 0
18 1 0
131 1 0
142 266 0
0 301 0
0 12 0
0 276 0
0 245 0
0 345 0
58 462 0
0 592 0
61 611 0
45 593 0
102 507 0
64 556 0
113 493 0
113 486 0
137 418 0
296 353 0
273 339 0
158 413 0
150 483 0
337 494 0
762 558 0
297 344 0
500 332 0
436 289 0
561 146 0
562 222 0
537 168 0
331 178 0
221 210 0
597 121 0
634 95 0
634 126 0
704 80 0
742 48 0
0 125 0
0 184 0
0 208 0
0 316 0
0 230 0
0 17 0
85 1 0
49 1 0
38 1 0
210 216 0
186 1 0
305 183 0
349 175 0
350 246 0
246 326 0
365 253 0
233 325 0
215 322 0
197 324 0
260 329 0
267 337 0
338 326 0
340 330 0
330 342 0
354 359 0
326 340 0
283 341 0
277 340 0
171 413 0
233 399 0
238 393 0
234 331 0
240 326 0
0 375 0
79 379 0
0 385 0
142 412 0
117 412 0
0 447 0
67 416 0
93 481 0
105 413 0
52 496 0
81 530 0
52 489 0
48 529 0
0 495 0
0 585 0
45 569 0
51 588 0
0 608 0
46 611 0
78 567 0
56 587 0
96 555 0
107 547 0
73 541 0
145 529 0
111 497 0
120 540 0
181 611 0
282 611 0
236 510 0
247 509 0
305 501 0
312 499 0
269 445 0
287 452 0
171 492 0
146 481 0
111 478 0
149 420 0
133 418 0
246 434 0
251 436 0
257 428 0
391 265 0
389 274 0
393 276 0
406 271 0
398 284 0
455 301 0
373 359 0
372 298 0
366 302 0
384 369 0
371 372 0
393 377 0
380 378 0
371 611 0
440 419 0
418 399 0
415 396 0
397 379 0
400 382 0
528 401 0
506 422 0
460 452 0
477 611 0
685 611 0
595 611 0
762 544 0
762 503 0
762 447 0
762 314 0
562 337 0
546 376 0
491 328 0
490 321 0
459 257 0
458 304 0
464 293 0
469 298 0
476 306 0
762 242 0
762 213 0
762 185 0
762 162 0
657 113 0
639 124 0
584 129 0
623 132 0
565 241 0
564 231 0
551 181 0
522 198 0
368 171 0
434 164 0
539 152 0
453 163 0
545 161 0
547 158 0
556 145 0
674 53 0
685 47 0
673 102 0
661 69 0
383 1 0
433 1 0
497 1 0
687 35 0
685 39 0
722 1 0
693 1 0
729 1 0
717 17 0
694 28 0
762 38 0
735 54 0
762 34 0
762 28 0
736 1 0
8 1 0
13 1 0
24 1 0
69 1 0
0 23 0
0 37 0
0 47 0
0 3 0
0 29 0
0 67 0
0 259 0
0 289 0
0 329 0
98 331 0
0 155 0
0 97 0
0 80 0
0 57 0
124 286 0
118 294 0
114 301 0
111 308 0
186 322 0
167 318 0
178 317 0
159 316 0
149 314 0
139 274 0
146 261 0
138 268 0
134 275 0
131 279 0
151 255 0
106 1 0
157 1 0
164 245 0
175 236 0
222 1 0
233 206 0
198 221 0
186 228 0
247 199 0
256 196 0
266 194 0
246 1 0
276 191 0
297 185 0
279 1 0
298 1 0
316 181 0
317 1 0
324 235 0
318 233 0
309 229 0
303 225 0
289 187 0
228 324 0
252 327 0
256 328 0
327 240 0
274 330 0
278 331 0
270 330 0
266 329 0
229 330 0
217 328 0
224 329 0
211 326 0
221 323 0
211 322 0
206 321 0
201 321 0
192 323 0
202 325 0
207 326 0
241 332 0
246 333 0
241 333 0
251 334 0
262 336 0
288 342 0
258 336 0
285 332 0
289 332 0
294 333 0
299 334 0
305 335 0
311 335 0
317 336 0
301 346 0
322 337 0
299 350 0
293 343 0
291 356 0
266 370 0
273 364 0
280 360 0
287 358 0
260 374 0
255 379 0
253 426 0
248 422 0
249 383 0
231 427 0
243 419 0
237 414 0
244 388 0
231 410 0
227 403 0
226 407 0
219 422 0
223 424 0
227 426 0
171 425 0
167 424 0
163 423 0
159 422 0
155 421 0
142 419 0
202 414 0
210 417 0
215 420 0
182 413 0
167 413 0
188 413 0
175 413 0
196 413 0
132 412 0
149 412 0
138 412 0
163 413 0
153 413 0
83 367 0
76 388 0
86 359 0
90 349 0
0 355 0
0 365 0
0 398 0
73 398 0
70 407 0
99 412 0
0 407 0
112 412 0
124 412 0
128 412 0
125 416 0
129 417 0
121 415 0
66 423 0
0 427 0
0 462 0
0 439 0
0 471 0
0 479 0
0 502 0
50 507 0
0 487 0
54 482 0
54 476 0
58 453 0
56 470 0
61 444 0
64 431 0
96 478 0
100 478 0
103 483 0
98 483 0
98 511 0
87 481 0
84 525 0
49 520 0
90 520 0
93 515 0
87 560 0
102 550 0
75 536 0
70 545 0
67 552 0
47 549 0
47 554 0
47 542 0
47 535 0
49 514 0
0 526 0
0 514 0
0 534 0
0 547 0
0 556 0
45 573 0
0 565 0
46 560 0
46 565 0
45 588 0
46 578 0
45 584 0
0 598 0
0 575 0
0 603 0
11 611 0
7 611 0
19 611 0
3 611 0
37 611 0
42 611 0
26 611 0
32 611 0
46 600 0
54 590 0
50 593 0
47 596 0
51 611 0
93 611 0
104 611 0
83 611 0
56 611 0
66 611 0
66 578 0
70 574 0
60 583 0
55 579 0
53 585 0
57 574 0
59 568 0
62 561 0
74 570 0
83 563 0
118 488 0
107 485 0
160 487 0
176 489 0
176 493 0
176 520 0
170 522 0
106 501 0
166 490 0
138 532 0
131 535 0
114 543 0
128 611 0
116 611 0
156 611 0
170 611 0
144 611 0
155 526 0
163 523 0
182 519 0
192 517 0
219 611 0
198 611 0
300 611 0
265 611 0
318 611 0
230 611 0
251 611 0
268 506 0
259 507 0
222 512 0
200 515 0
211 514 0
182 496 0
278 505 0
286 504 0
321 498 0
296 502 0
302 458 0
172 485 0
296 455 0
292 451 0
165 455 0
169 450 0
162 459 0
165 477 0
170 481 0
141 480 0
154 485 0
120 478 0
116 478 0
106 478 0
130 477 0
125 477 0
137 477 0
157 466 0
161 472 0
260 440 0
255 438 0
181 437 0
172 446 0
184 430 0
178 428 0
184 434 0
235 429 0
239 430 0
263 432 0
268 435 0
271 437 0
264 442 0
273 446 0
286 447 0
280 449 0
282 444 0
277 442 0
274 439 0
358 257 0
352 254 0
364 260 0
367 262 0
375 266 0
378 268 0
371 264 0
376 258 0
372 256 0
382 260 0
386 262 0
396 266 0
400 268 0
420 277 0
415 276 0
411 274 0
386 272 0
382 271 0
400 280 0
396 278 0
427 282 0
431 285 0
393 288 0
389 290 0
381 294 0
363 350 0
360 306 0
354 343 0
358 346 0
350 338 0
347 335 0
348 316 0
343 333 0
343 322 0
333 345 0
338 348 0
342 351 0
350 356 0
345 354 0
357 362 0
367 354 0
387 372 0
391 374 0
379 364 0
367 369 0
361 365 0
348 492 0
360 489 0
329 496 0
334 611 0
352 611 0
389 481 0
375 485 0
387 382 0
384 380 0
375 375 0
418 471 0
404 476 0
413 611 0
397 611 0
426 468 0
439 611 0
433 464 0
434 415 0
430 408 0
423 402 0
422 407 0
412 400 0
407 397 0
402 393 0
397 389 0
392 386 0
404 385 0
408 389 0
411 393 0
514 416 0
522 409 0
535 394 0
540 386 0
487 436 0
493 431 0
481 440 0
471 446 0
446 423 0
454 454 0
465 448 0
448 458 0
440 461 0
461 611 0
533 611 0
561 611 0
631 611 0
495 611 0
513 611 0
703 611 0
728 611 0
716 611 0
663 611 0
749 611 0
762 611 0
756 611 0
737 611 0
743 611 0
762 596 0
762 581 0
762 607 0
762 590 0
762 603 0
762 474 0
762 389 0
762 422 0
762 567 0
762 526 0
559 349 0
762 360 0
762 338 0
566 320 0
495 331 0
497 327 0
505 337 0
555 360 0
551 367 0
493 324 0
487 325 0
487 318 0
481 321 0
477 318 0
467 311 0
472 314 0
479 309 0
482 312 0
485 315 0
450 299 0
449 276 0
444 295 0
440 292 0
444 266 0
443 270 0
446 273 0
448 264 0
453 260 0
457 284 0
453 279 0
461 289 0
473 301 0
464 308 0
569 284 0
568 305 0
762 279 0
568 266 0
567 254 0
597 146 0
593 149 0
586 152 0
579 156 0
605 143 0
579 131 0
609 140 0
615 137 0
762 143 0
645 120 0
762 131 0
762 120 0
650 117 0
762 111 0
612 112 0
608 115 0
603 118 0
593 124 0
588 126 0
564 143 0
572 160 0
568 138 0
574 135 0
559 142 0
551 146 0
558 149 0
550 156 0
553 152 0
550 172 0
554 170 0
558 168 0
567 163 0
563 165 0
559 207 0
560 214 0
556 196 0
554 189 0
549 176 0
509 218 0
514 211 0
519 204 0
525 191 0
497 229 0
483 239 0
474 245 0
464 253 0
369 254 0
356 249 0
359 251 0
348 252 0
346 245 0
343 249 0
332 238 0
333 243 0
337 241 0
337 245 0
341 243 0
383 169 0
400 167 0
358 172 0
340 175 0
417 166 0
481 162 0
493 162 0
501 162 0
511 161 0
528 157 0
524 159 0
517 160 0
527 183 0
531 174 0
542 164 0
534 171 0
533 156 0
544 150 0
547 148 0
702 51 0
696 86 0
695 50 0
698 24 0
690 48 0
682 42 0
691 90 0
686 94 0
680 98 0
649 82 0
664 109 0
640 90 0
627 100 0
620 106 0
593 1 0
655 75 0
666 62 0
680 46 0
670 57 0
568 1 0
535 1 0
518 1 0
343 1 0
411 1 0
361 1 0
456 1 0
475 1 0
551 1 0
621 1 0
581 1 0
632 1 0
648 1 0
610 1 0
686 1 0
699 1 0
677 1 0
660 1 0
668 1 0
707 1 0
710 17 0
711 1 0
715 1 0
730 51 0
733 27 0
727 22 0
722 20 0
703 21 0
710 53 0
718 55 0
720 68 0
711 74 0
716 71 0
724 64 0
728 61 0
731 58 0
723 53 0
727 53 0
734 50 0
762 50 0
738 51 0
762 56 0
762 99 0
762 90 0
762 83 0
762 65 0
762 74 0
762 18 0
762 23 0
743 44 0
737 31 0
743 37 0
752 1 0
743 1 0
759 1 0
762 10 0
762 3 0

CELLS 1414 5656
3 271 67 269
3 53 17 215
3 17 0 215
3 410 99 423
3 485 473 474
3 64 66 59
3 539 73 537
3 701 161 648
3 217 235 50
3 694 41 173
3 492 490 322
3 172 173 165
3 661 170 657
3 182 40 681
3 674 170 661
3 767 196 190
3 11 196 732
3 239 243 60
3 202 13 12
3 254 253 261
3 516 126 515
3 44 64 59
3 220 20 54
3 13 202 18
3 238 272 273
3 336 21 214
3 364 365 343
3 418 103 421
3 375 92 371
3 376 106 104
3 371 26 370
3 108 429 107
3 23 97 395
3 369 26 371
3 369 366 367
3 428 415 414
3 369 367 368
3 429 476 107
3 482 478 479
3 86 331 228
3 75 72 73
3 329 30 122
3 262 263 32
3 493 305 306
3 224 325 225
3 330 320 86
3 107 476 34
3 306 303 494
3 441 105 440
3 660 41 657
3 565 561 568
3 570 8 141
3 77 263 76
3 264 32 70
3 623 38 622
3 543 542 74
3 548 132 529
3 63 706 712
3 179 177 188
3 568 569 140
3 695 41 694
3 6 47 169
3 175 719 720
3 697 692 691
3 531 134 530
3 44 59 236
3 264 262 32
3 242 238 50
3 753 680 731
3 663 171 6
3 168 668 743
3 745 6 670
3 665 169 744
3 6 171 670
3 734 48 733
3 744 745 761
3 776 787 777
3 169 166 165
3 234 52 51
3 214 53 2
3 234 231 52
3 231 220 54
3 18 203 55
3 211 219 205
3 208 58 57
3 240 256 64
3 238 216 50
3 746 46 744
3 256 247 257
3 254 43 253
3 247 245 246
3 641 517 516
3 509 514 510
3 292 71 75
3 277 279 81
3 223 0 213
3 513 511 508
3 63 62 715
3 266 66 81
3 280 259 260
3 273 226 237
3 258 66 266
3 270 268 267
3 330 86 227
3 44 240 64
3 289 287 709
3 328 326 275
3 32 297 70
3 134 133 530
3 293 75 539
3 538 72 71
3 291 293 37
3 537 73 72
3 115 467 465
3 550 132 549
3 560 138 467
3 282 285 286
3 71 72 75
3 255 261 285
3 282 294 295
3 282 295 299
3 300 301 279
3 310 80 79
3 315 316 78
3 328 275 276
3 467 469 470
3 296 297 299
3 555 553 35
3 82 81 66
3 64 259 278
3 64 82 66
3 64 277 82
3 343 84 345
3 331 86 30
3 83 84 335
3 215 228 2
3 330 121 320
3 336 87 334
3 345 334 87
3 89 351 3
3 427 426 102
3 344 89 3
3 348 350 346
3 371 364 366
3 436 430 108
3 371 362 364
3 343 335 84
3 94 92 96
3 94 371 92
3 106 378 104
3 370 26 109
3 361 360 94
3 360 371 94
3 380 383 379
3 373 93 378
3 359 94 96
3 383 384 379
3 425 424 98
3 387 357 385
3 395 99 411
3 425 98 394
3 400 398 401
3 419 420 416
3 377 372 105
3 418 410 103
3 423 397 396
[...]
CELL_DATA 1414
COLOR_SCALARS ColorSpace 1
0.522876
0.837908
0.694118
0.577778
0.431373
0.467974
0.484967
0.435294
0.921569
0.545098
0.45098
0.69281
0.80915
0.496732
0.815686
0.900654
0.635294
0.913725
0.921569
0.512418
0.524183
0.529412
0.913725
0.921569
0.645752
0.775163
0.494118
0.763399
0.528105
0.662745
0.478431
0.592157
0.915033
0.440523
0.475817
0.839216
0.461438
0.596078
0.546405
0.498039
0.490196
0.452288
0.501961
0.50719
0.461438
0.469281
0.60915
0.422222
0.746405
0.76732
0.781699
0.461438
0.457516
0.477124
0.479739
0.530719
0.445752
0.54902
0.733333
0.518954
0.487582
0.805229
0.427451
0.606536
0.466667
0.671895
0.496732
0.867974
0.854902
0.784314
0.771242
0.746405
0.819608
0.708497
0.67451
0.854902
0.414379
0.905882
0.913725
0.913725
0.905882
0.905882
0.921569
0.921569
0.921569
0.458824
0.877124
0.879739
0.444444
0.520261
0.576471
0.487582
0.454902
0.533333
0.420915
0.607843
0.470588
0.572549
0.469281
0.515033
0.534641
0.515033
0.454902
0.469281
0.545098
0.513725
0.495425
0.428758
0.469281
0.545098
0.48366
0.440523
0.436601
0.71634
0.524183
0.539869
0.494118
0.49281
0.475817
0.447059
0.499346
0.453595
0.479739
0.481046
0.45098
0.433987
0.488889
0.803922
0.513725
0.494118
0.539869
0.500654
0.457516
0.482353
0.579085
0.67451
0.448366
0.504575
0.533333
0.750327
0.575163
0.90719
0.479739
0.494118
0.454902
0.628758
0.405229
0.866667
0.691503
0.598693
0.581699
0.849673
0.679739
0.60915
0.611765
0.915033
0.752941
0.597386
0.91634
0.606536
0.69281
0.921569
0.857516
0.579085
0.815686
0.652288
0.532026
0.801307
0.837908
0.886275
0.50719
0.613072
0.830065
0.866667
0.498039
0.667974
0.75817
0.705882
0.900654
0.653595
0.475817
0.878431
0.573856
0.903268
0.635294
0.718954
0.75817
0.49281
0.658824
0.465359
0.393464
0.675817
0.4
0.495425
0.453595
0.456209
0.533333
0.501961
0.542484
0.4
0.526797
0.435294
0.637908
0.486275
0.756863
0.386928
0.45098
0.452288
0.528105
0.496732
0.448366
0.458824
0.465359
0.562092
0.535948
0.513725
0.501961
0.522876
0.545098
0.467974
0.529412
0.465359
0.456209
0.458824
0.436601
0.407843
0.652288
0.545098
0.475817
0.440523
0.509804
0.503268
0.538562
0.534641
0.717647
0.469281
0.469281
0.45098
0.499346
0.495425
0.555556
0.488889
0.452288
0.76732
0.724183
0.647059
0.848366
0.665359
0.869281
0.84183
0.730719
0.921569
0.921569
0.871895
0.636601
0.845752
0.614379
0.698039
0.639216
0.515033
0.52549
0.45098
0.396078
0.487582
0.503268
0.481046
0.465359
0.482353
0.545098
0.466667
0.51634
0.547712
0.439216
0.712418
0.801307
0.896732
0.895425
0.789542
0.866667
0.756863
0.828758
0.711111
0.839216
0.717647
0.772549
0.682353
0.509804
0.780392
0.577778
0.630065
0.83268
0.411765
0.538562
0.584314
0.560784
0.712418
0.670588
0.54902
0.49281
0.684967
0.589542
0.614379
0.479739
0.624837
0.806536
0.585621
0.860131
0.785621
0.754248
0.593464
0.773856
0.772549
0.656209
0.88366
0.827451
0.877124
0.793464
0.80915
0.533333
0.528105
0.71634
0.562092
0.766013
0.482353
0.43268
0.745098
0.751634
0.462745
0.741176
0.734641
0.649673
0.741176
0.601307
0.738562
0.921569
0.921569
0.921569
0.921569
0.921569
0.921569
0.921569
0.921569
0.921569
0.921569
0.921569
0.921569
0.917647
0.751634
0.777778
0.798693
0.830065
0.538562
0.733333
0.777778
0.921569
0.921569
0.921569
0.448366
0.909804
0.419608
0.911111
0.745098
0.915033
0.4
0.452288
0.515033
0.461438
0.439216
0.586928
0.47451
0.444444
0.458824
0.754248
0.589542
0.755556
0.398693
0.456209
0.662745
0.644444
0.913725
0.563399
0.741176
0.552941
0.577778
0.389542
0.633987
0.79085
0.921569
0.861438
0.724183
0.658824
0.769935
0.904575
0.547712
0.583007
0.853595
0.436601
0.913725
0.594771
0.912418
0.775163
0.679739
0.465359
0.871895
0.698039
0.443137
0.879739
0.75817
0.59085
0.496732
0.579085
0.469281
0.881046
0.628758
0.589542
0.440523
0.888889
0.501961
0.500654
0.488889
0.551634
0.593464
0.72549
0.430065
0.526797
0.754248
0.43268
0.481046
0.487582
0.546405
0.511111
0.520261
0.433987
0.490196
0.501961
0.457516
0.546405
0.449673
0.521569
0.501961
0.559477
0.511111
0.526797
0.443137
0.426144
0.430065
0.428758
0.490196
0.471895
0.512418
0.469281
0.47451
0.505882
0.466667
0.743791
0.487582
0.626144
0.520261
0.505882
0.453595
0.439216
0.469281
0.433987
0.419608
0.462745
0.465359
0.47451
0.482353
0.436601
0.435294
0.449673
0.475817
0.453595
0.484967
0.533333
0.504575
0.513725
0.454902
0.449673
0.494118
0.546405
0.447059
0.55817
0.444444
0.498039
0.505882
0.504575
0.52549
0.456209
0.508497
0.56732
0.538562
0.533333
0.464052
0.511111
0.546405
0.526797
0.481046
0.499346
0.505882
0.443137
0.538562
0.564706
0.418301
0.473203
0.440523
0.418301
0.423529
0.445752
0.491503
0.470588
0.436601
0.449673
0.444444
0.445752
0.428758
0.436601
0.437908
0.436601
0.443137
0.416993
0.532026
0.752941
0.427451
0.532026
0.481046
0.465359
0.415686
0.45098
0.479739
0.466667
0.457516
0.465359
0.453595
0.40915
0.51634
0.453595
0.512418
0.515033
0.545098
0.522876
0.532026
0.453595
0.479739
0.477124
0.481046
0.48366
0.522876
0.466667
0.49281
0.445752
0.439216
0.443137
0.458824
0.535948
0.473203
0.503268
0.528105
0.478431
0.51634
0.456209
0.515033
0.524183
0.494118
0.515033
0.520261
0.520261
0.498039
0.465359
0.501961
0.529412
0.49281
0.496732
0.55817
0.520261
0.517647
0.524183
0.543791
0.538562
0.626144
0.6
0.601307
0.751634
0.660131
0.541176
0.643137
0.532026
0.772549
0.74902
0.74902
0.637908
0.464052
0.788235
0.427451
0.773856
0.433987
0.6
0.90719
0.453595
0.482353
0.465359
0.509804
0.569935
0.454902
0.448366
0.475817
0.51634
0.48366
0.486275
0.478431
0.783007
0.576471
0.626144
0.918954
0.918954
0.67451
0.91634
0.867974
0.750327
0.91634
0.915033
0.909804
0.660131
0.91634
0.426144
0.752941
0.806536
0.835294
0.577778
0.495425
0.803922
0.452288
0.667974
0.461438
0.504575
0.473203
0.471895
0.427451
0.509804
0.464052
0.427451
0.623529
0.44183
0.681046
0.499346
0.622222
0.698039
0.90719
0.74902
0.551634
0.585621
0.491503
0.465359
0.80915
0.520261
0.686275
0.530719
0.596078
0.735948
0.694118
0.611765
0.571242
0.513725
0.530719
0.616993
0.709804
0.764706
0.913725
0.911111
0.915033
0.911111
0.840523
0.909804
0.918954
0.90719
0.91634
0.845752
0.789542
0.915033
0.913725
0.90719
0.777778
0.445752
0.500654
0.857516
0.908497
0.737255
0.500654
0.538562
0.908497
0.915033
0.915033
0.90719
0.921569
0.921569
0.921569
0.921569
0.921569
0.913725
0.913725
0.915033
0.915033
0.90719
0.911111
0.585621
0.756863
0.771242
0.894118
0.593464
0.592157
0.722876
0.911111
0.739869
0.756863
0.84183
0.878431
0.913725
0.776471
0.894118
0.900654
0.65098
0.775163
0.583007
0.820915
0.598693
0.618301
0.762092
0.538562
0.670588
0.684967
0.675817
0.691503
0.545098
0.580392
0.499346
0.735948
0.614379
0.732026
0.610458
0.449673
0.534641
0.413072
0.461438
0.786928
0.440523
0.56732
0.501961
0.779085
0.479739
0.652288
0.471895
0.915033
0.626144
0.579085
0.445752
0.733333
0.732026
0.684967
0.569935
0.620915
0.569935
0.818301
0.91634
0.80915
0.843137
0.912418
0.849673
0.873203
0.905882
0.613072
0.624837
0.845752
0.903268
0.90719
0.894118
0.784314
0.88366
0.913725
0.896732
0.878431
0.920261
0.816993
0.915033
0.913725
0.763399
0.754248
0.867974
0.661438
0.873203
0.478431
0.764706
0.780392
0.901961
0.887582
0.482353
0.760784
0.780392
0.909804
0.905882
0.91634
0.913725
0.721569
0.909804
0.6
0.572549
0.605229
0.436601
0.477124
0.456209
0.542484
0.513725
0.49281
0.457516
0.465359
0.460131
0.43268
0.453595
0.452288
0.528105
0.513725
0.436601
0.491503
0.528105
0.526797
0.726797
0.517647
0.499346
0.427451
0.546405
0.511111
0.484967
0.500654
0.481046
0.543791
0.436601
0.528105
0.458824
0.541176
0.458824
0.503268
0.469281
0.498039
0.495425
0.755556
0.499346
0.662745
0.482353
0.503268
0.44183
0.428758
0.490196
0.467974
0.416993
0.484967
0.528105
0.445752
0.64183
0.665359
0.478431
0.475817
0.454902
0.436601
0.469281
0.444444
0.482353
0.448366
0.649673
0.50719
0.475817
0.639216
0.482353
0.509804
0.498039
0.652288
0.530719
0.478431
0.44183
0.457516
0.443137
0.423529
0.508497
0.464052
0.437908
0.460131
0.471895
0.491503
0.466667
0.490196
0.461438
0.452288
0.505882
0.436601
0.444444
0.437908
0.524183
0.517647
0.482353
0.512418
0.551634
0.471895
0.529412
0.494118
0.498039
0.475817
0.486275
0.498039
0.51634
0.503268
0.547712
0.529412
0.490196
0.534641
0.521569
0.465359
0.439216
0.478431
0.524183
0.452288
0.440523
0.467974
0.505882
0.44183
0.54902
0.466667
0.50719
0.47451
0.518954
0.466667
0.486275
0.43268
0.445752
0.427451
0.470588
0.471895
0.464052
0.470588
0.447059
0.473203
0.49281
0.469281
0.467974
0.461438
0.475817
0.484967
0.449673
0.470588
0.490196
0.48366
0.533333
0.538562
0.500654
0.560784
0.54902
0.511111
0.486275
0.426144
0.555556
0.501961
0.541176
0.505882
0.458824
0.427451
0.490196
0.444444
0.534641
0.424837
0.498039
0.461438
0.542484
0.454902
0.504575
0.512418
0.717647
0.895425
0.546405
0.847059
0.875817
0.724183
0.915033
0.882353
0.769935
0.89281
0.695425
0.908497
0.541176
0.660131
0.498039
0.447059
0.537255
0.524183
0.658824
0.773856
0.905882
0.873203
0.896732
0.860131
0.79085
0.91634
0.90719
0.605229
0.869281
0.660131
0.596078
0.486275
0.543791
0.414379
0.494118
0.509804
0.518954
0.484967
0.505882
0.738562
0.508497
0.667974
0.473203
0.628758
0.490196
0.633987
0.484967
0.460131
0.512418
0.518954
0.49281
0.464052
0.40915
0.888889
0.579085
0.865359
0.68366
0.613072
0.921569
0.708497
0.777778
0.784314
0.915033
0.915033
0.704575
0.911111
0.50719
0.899346
0.69281
0.762092
0.673203
0.691503
0.90719
0.669281
0.798693
0.862745
0.822222
0.669281
0.72549
0.864052
0.904575
0.824837
0.898039
0.901961
0.913725
0.921569
0.921569
0.921569
0.921569
0.921569
0.921569
0.921569
0.921569
0.921569
0.921569
0.921569
0.921569
0.921569
0.921569
0.921569
0.871895
0.563399
0.802614
0.921569
0.921569
0.755556
0.891503
0.869281
0.732026
0.845752
0.59085
0.475817
0.487582
0.48366
0.555556
0.447059
0.56732
0.839216
0.704575
0.652288
0.793464
0.495425
0.419608
0.448366
0.44183
0.495425
0.481046
0.482353
0.494118
0.521569
0.435294
0.515033
0.522876
0.545098
0.486275
0.448366
0.415686
0.504575
0.443137
0.449673
0.416993
0.530719
0.539869
0.439216
0.464052
0.473203
0.518954
0.562092
0.509804
0.479739
0.532026
0.501961
0.484967
0.452288
0.419608
0.467974
0.471895
0.566013
0.500654
0.48366
0.423529
0.44183
0.484967
0.503268
0.443137
0.410458
0.520261
0.462745
0.546405
0.762092
0.613072
0.773856
0.624837
0.833987
0.8
0.534641
0.681046
0.470588
0.796078
0.733333
0.657516
0.792157
0.721569
0.56732
0.684967
0.690196
0.684967
0.728105
0.724183
0.905882
0.771242
0.593464
0.879739
0.704575
0.794771
0.742484
0.775163
0.879739
0.854902
0.793464
0.797386
0.861438
0.669281
0.840523
0.657516
0.581699
0.733333
0.752941
0.739869
0.71634
0.912418
0.746405
0.623529
0.588235
0.59085
0.630065
0.592157
0.660131
0.635294
0.70719
0.690196
0.860131
0.454902
0.803922
0.756863
0.55817
0.752941
0.541176
0.745098
0.6
0.764706
0.615686
0.769935
0.68366
0.752941
0.798693
0.735948
0.813072
0.6
0.769935
0.589542
0.696732
0.577778
0.691503
0.533333
0.735948
0.735948
0.818301
0.573856
0.630065
0.471895
0.54902
0.439216
0.517647
0.551634
0.498039
0.440523
0.462745
0.430065
0.596078
0.515033
0.571242
0.456209
0.551634
0.453595
0.518954
0.530719
0.538562
0.537255
0.467974
0.55817
0.517647
0.413072
0.424837
0.494118
0.487582
0.436601
0.453595
0.488889
0.43268
0.444444
0.475817
0.500654
0.488889
0.475817
0.515033
0.526797
0.505882
0.695425
0.528105
0.631373
0.45098
0.533333
0.807843
0.881046
0.669281
0.80915
0.522876
0.862745
0.460131
0.577778
0.392157
0.571242
0.431373
0.562092
0.550327
0.643137
0.478431
0.566013
0.564706
0.601307
0.576471
0.433987
0.503268
0.49281
0.47451
0.533333
0.637908
0.509804
0.511111
0.601307
0.546405
0.661438
0.572549
0.847059
0.684967
0.645752
0.588235
0.794771
0.772549
0.598693
0.622222
0.873203
0.760784
0.554248
0.677124
0.794771
0.671895
0.813072
0.89281
0.777778
0.85098
0.788235
0.856209
0.786928
0.76732
0.805229
0.840523
0.888889
0.772549
0.802614
0.813072
0.763399
0.705882
0.887582
0.8
0.815686
0.915033
0.742484
0.669281
0.597386
0.836601
0.815686
0.901961
0.746405
0.88366
0.848366
0.848366
0.766013
0.747712
0.752941
0.694118
0.886275
0.843137
0.755556
0.918954
0.915033
0.862745
0.891503
0.418301
0.903268
0.836601
0.912418
0.766013
0.428758
0.766013
0.594771
0.750327
0.703268
0.573856
0.436601
0.768627
0.568627
0.745098
0.526797
0.611765
0.730719
0.605229
0.520261
0.780392
0.469281
0.858824
0.87451
0.768627
0.664052
0.811765
0.690196
0.899346
0.755556
0.698039
0.857516
0.606536
0.845752
0.622222
0.407843
0.747712
0.496732
0.622222
0.72549
0.593464
0.915033
0.915033
0.684967
0.89281
0.904575
0.91634
0.818301
0.899346
0.870588
0.763399
0.768627
0.477124
0.588235
0.580392
0.768627
0.454902
0.610458
0.738562
0.921569
0.921569
0.921569
0.921569
