# vtk DataFile Version 1.0
Unstructured Grid Example
ASCII

DATASET UNSTRUCTURED_GRID
POINTS 808 float
3 611 0
7 611 0
11 611 0
19 611 0
26 611 0
32 611 0
37 611 0
42 611 0
46 611 0
51 611 0
56 611 0
61 611 0
66 611 0
73 611 0
83 611 0
93 611 0
104 611 0
116 611 0
128 611 0
144 611 0
156 611 0
170 611 0
181 611 0
198 611 0
219 611 0
230 611 0
251 611 0
265 611 0
282 611 0
300 611 0
318 611 0
334 611 0
352 611 0
371 611 0
397 611 0
413 611 0
439 611 0
461 611 0
477 611 0
495 611 0
513 611 0
533 611 0
561 611 0
595 611 0
631 611 0
663 611 0
685 611 0
703 611 0
716 611 0
728 611 0
737 611 0
743 611 0
749 611 0
756 611 0
762 611 0
0 608 0
762 607 0
0 603 0
762 603 0
46 600 0
0 598 0
47 596 0
762 596 0
45 593 0
50 593 0
0 592 0
54 590 0
762 590 0
45 588 0
51 588 0
56 587 0
0 585 0
53 585 0
45 584 0
60 583 0
762 581 0
55 579 0
46 578 0
66 578 0
0 575 0
57 574 0
70 574 0
45 573 0
74 570 0
45 569 0
59 568 0
78 567 0
762 567 0
0 565 0
46 565 0
83 563 0
62 561 0
46 560 0
87 560 0
762 558 0
0 556 0
64 556 0
96 555 0
47 554 0
67 552 0
102 550 0
47 549 0
0 547 0
107 547 0
70 545 0
762 544 0
114 543 0
47 542 0
73 541 0
120 540 0
75 536 0
47 535 0
131 535 0
0 534 0
138 532 0
81 530 0
48 529 0
145 529 0
0 526 0
155 526 0
762 526 0
84 525 0
163 523 0
170 522 0
49 520 0
90 520 0
176 520 0
182 519 0
192 517 0
93 515 0
200 515 0
0 514 0
49 514 0
211 514 0
222 512 0
98 511 0
236 510 0
247 509 0
50 507 0
102 507 0
259 507 0
268 506 0
278 505 0
286 504 0
762 503 0
0 502 0
296 502 0
106 501 0
305 501 0
312 499 0
321 498 0
111 497 0
52 496 0
182 496 0
329 496 0
0 495 0
337 494 0
113 493 0
176 493 0
171 492 0
348 492 0
166 490 0
52 489 0
176 489 0
360 489 0
118 488 0
0 487 0
160 487 0
113 486 0
107 485 0
154 485 0
172 485 0
375 485 0
98 483 0
103 483 0
150 483 0
54 482 0
87 481 0
93 481 0
146 481 0
170 481 0
389 481 0
141 480 0
0 479 0
96 478 0
100 478 0
106 478 0
111 478 0
116 478 0
120 478 0
125 477 0
130 477 0
137 477 0
165 477 0
54 476 0
404 476 0
762 474 0
161 472 0
0 471 0
418 471 0
56 470 0
426 468 0
157 466 0
433 464 0
0 462 0
58 462 0
440 461 0
162 459 0
302 458 0
448 458 0
165 455 0
296 455 0
454 454 0
58 453 0
287 452 0
460 452 0
292 451 0
169 450 0
280 449 0
465 448 0
0 447 0
286 447 0
762 447 0
172 446 0
273 446 0
471 446 0
269 445 0
61 444 0
282 444 0
176 443 0
264 442 0
277 442 0
260 440 0
481 440 0
0 439 0
274 439 0
255 438 0
181 437 0
271 437 0
251 436 0
487 436 0
268 435 0
184 434 0
246 434 0
263 432 0
64 431 0
493 431 0
184 430 0
239 430 0
235 429 0
178 428 0
257 428 0
0 427 0
231 427 0
227 426 0
253 426 0
171 425 0
167 424 0
223 424 0
66 423 0
163 423 0
446 423 0
159 422 0
219 422 0
248 422 0
506 422 0
762 422 0
155 421 0
149 420 0
215 420 0
142 419 0
243 419 0
440 419 0
133 418 0
137 418 0
129 417 0
210 417 0
0 416 0
67 416 0
125 416 0
514 416 0
121 415 0
434 415 0
202 414 0
237 414 0
105 413 0
153 413 0
158 413 0
163 413 0
167 413 0
171 413 0
175 413 0
182 413 0
188 413 0
196 413 0
99 412 0
112 412 0
117 412 0
124 412 0
128 412 0
132 412 0
138 412 0
142 412 0
149 412 0
231 410 0
522 409 0
430 408 0
0 407 0
70 407 0
226 407 0
422 407 0
227 403 0
415 403 0
423 402 0
528 401 0
412 400 0
233 399 0
418 399 0
0 398 0
73 398 0
407 397 0
415 396 0
535 394 0
238 393 0
402 393 0
411 393 0
397 389 0
408 389 0
762 389 0
76 388 0
244 388 0
392 386 0
540 386 0
0 385 0
404 385 0
249 383 0
387 382 0
400 382 0
384 380 0
79 379 0
255 379 0
397 379 0
380 378 0
393 377 0
546 376 0
0 375 0
375 375 0
260 374 0
391 374 0
371 372 0
387 372 0
266 370 0
367 369 0
384 369 0
83 367 0
551 367 0
0 365 0
361 365 0
273 364 0
379 364 0
357 362 0
280 360 0
555 360 0
762 360 0
86 359 0
354 359 0
373 359 0
287 358 0
291 356 0
350 356 0
0 355 0
345 354 0
367 354 0
296 353 0
342 351 0
299 350 0
363 350 0
90 349 0
559 349 0
338 348 0
301 346 0
358 346 0
0 345 0
333 345 0
297 344 0
293 343 0
354 343 0
288 342 0
330 342 0
283 341 0
93 340 0
277 340 0
326 340 0
273 339 0
350 338 0
762 338 0
267 337 0
322 337 0
505 337 0
562 337 0
258 336 0
262 336 0
317 336 0
305 335 0
311 335 0
347 335 0
251 334 0
299 334 0
241 333 0
246 333 0
294 333 0
343 333 0
241 332 0
285 332 0
289 332 0
500 332 0
98 331 0
234 331 0
278 331 0
495 331 0
229 330 0
270 330 0
274 330 0
340 330 0
0 329 0
224 329 0
260 329 0
266 329 0
217 328 0
256 328 0
491 328 0
252 327 0
497 327 0
207 326 0
211 326 0
240 326 0
246 326 0
338 326 0
202 325 0
233 325 0
487 325 0
197 324 0
228 324 0
493 324 0
192 323 0
221 323 0
186 322 0
211 322 0
215 322 0
343 322 0
201 321 0
206 321 0
481 321 0
490 321 0
566 320 0
105 318 0
167 318 0
477 318 0
487 318 0
178 317 0
0 316 0
159 316 0
348 316 0
485 315 0
149 314 0
472 314 0
762 314 0
482 312 0
355 311 0
467 311 0
479 309 0
111 308 0
464 308 0
360 306 0
476 306 0
568 305 0
458 304 0
366 302 0
0 301 0
114 301 0
455 301 0
473 301 0
450 299 0
372 298 0
469 298 0
444 295 0
118 294 0
381 294 0
464 293 0
440 292 0
389 290 0
0 289 0
436 289 0
461 289 0
393 288 0
124 286 0
431 285 0
398 284 0
457 284 0
569 284 0
427 282 0
400 280 0
131 279 0
453 279 0
762 279 0
396 278 0
420 277 0
0 276 0
393 276 0
415 276 0
449 276 0
134 275 0
139 274 0
389 274 0
411 274 0
446 273 0
386 272 0
382 271 0
406 271 0
443 270 0
138 268 0
378 268 0
400 268 0
142 266 0
375 266 0
396 266 0
444 266 0
568 266 0
391 265 0
371 264 0
448 264 0
367 262 0
386 262 0
146 261 0
364 260 0
382 260 0
453 260 0
0 259 0
376 258 0
358 257 0
459 257 0
372 256 0
151 255 0
352 254 0
369 254 0
567 254 0
365 253 0
464 253 0
348 252 0
359 251 0
343 249 0
356 249 0
350 246 0
0 245 0
164 245 0
337 245 0
346 245 0
474 245 0
333 243 0
341 243 0
762 242 0
337 241 0
565 241 0
327 240 0
483 239 0
332 238 0
175 236 0
324 235 0
318 233 0
564 231 0
0 230 0
309 229 0
497 229 0
186 228 0
303 225 0
562 222 0
198 221 0
509 218 0
210 216 0
560 214 0
762 213 0
514 211 0
221 210 0
0 208 0
559 207 0
233 206 0
519 204 0
247 199 0
522 198 0
256 196 0
556 196 0
266 194 0
276 191 0
525 191 0
554 189 0
289 187 0
297 185 0
762 185 0
0 184 0
305 183 0
527 183 0
316 181 0
551 181 0
331 178 0
549 176 0
340 175 0
349 175 0
531 174 0
358 172 0
550 172 0
368 171 0
534 171 0
554 170 0
383 169 0
537 168 0
558 168 0
400 167 0
417 166 0
563 165 0
434 164 0
542 164 0
453 163 0
567 163 0
468 162 0
481 162 0
493 162 0
501 162 0
762 162 0
511 161 0
545 161 0
517 160 0
572 160 0
524 159 0
547 158 0
528 157 0
533 156 0
550 156 0
579 156 0
0 155 0
539 152 0
553 152 0
586 152 0
544 150 0
558 149 0
593 149 0
547 148 0
551 146 0
561 146 0
597 146 0
556 145 0
564 143 0
605 143 0
762 143 0
559 142 0
609 140 0
568 138 0
615 137 0
574 135 0
623 132 0
579 131 0
762 131 0
629 130 0
584 129 0
588 126 0
634 126 0
0 125 0
593 124 0
639 124 0
597 121 0
645 120 0
762 120 0
603 118 0
650 117 0
608 115 0
657 113 0
612 112 0
762 111 0
664 109 0
620 106 0
673 102 0
627 100 0
762 99 0
680 98 0
0 97 0
634 95 0
686 94 0
640 90 0
691 90 0
762 90 0
645 86 0
696 86 0
762 83 0
649 82 0
0 80 0
704 80 0
655 75 0
711 74 0
762 74 0
716 71 0
661 69 0
720 68 0
0 67 0
762 65 0
724 64 0
666 62 0
728 61 0
731 58 0
0 57 0
670 57 0
762 56 0
718 55 0
735 54 0
674 53 0
710 53 0
723 53 0
727 53 0
702 51 0
730 51 0
738 51 0
695 50 0
734 50 0
762 50 0
690 48 0
742 48 0
0 47 0
685 47 0
680 46 0
743 44 0
762 43 0
682 42 0
685 39 0
762 38 0
0 37 0
743 37 0
687 35 0
762 34 0
691 32 0
737 31 0
0 29 0
694 28 0
762 28 0
733 27 0
698 24 0
0 23 0
762 23 0
727 22 0
703 21 0
722 20 0
762 18 0
0 17 0
710 17 0
717 17 0
0 12 0
762 10 0
0 7 0
0 3 0
762 3 0
3 1 0
8 1 0
13 1 0
18 1 0
24 1 0
38 1 0
49 1 0
69 1 0
85 1 0
106 1 0
131 1 0
157 1 0
186 1 0
222 1 0
246 1 0
279 1 0
298 1 0
317 1 0
343 1 0
361 1 0
383 1 0
411 1 0
433 1 0
456 1 0
475 1 0
497 1 0
518 1 0
535 1 0
551 1 0
568 1 0
581 1 0
593 1 0
610 1 0
621 1 0
632 1 0
648 1 0
660 1 0
668 1 0
677 1 0
686 1 0
693 1 0
699 1 0
707 1 0
711 1 0
715 1 0
722 1 0
729 1 0
736 1 0
743 1 0
752 1 0
759 1 0
CELLS 808 1616
1 0
1 1
1 2
1 3
1 4
1 5
1 6
1 7
1 8
1 9
1 10
1 11
1 12
1 13
1 14
1 15
1 16
1 17
1 18
1 19
1 20
1 21
1 22
1 23
1 24
1 25
1 26
1 27
1 28
1 29
1 30
1 31
1 32
1 33
1 34
1 35
1 36
1 37
1 38
1 39
1 40
1 41
1 42
1 43
1 44
1 45
1 46
1 47
1 48
1 49
1 50
1 51
1 52
1 53
1 54
1 55
1 56
1 57
1 58
1 59
1 60
1 61
1 62
1 63
1 64
1 65
1 66
1 67
1 68
1 69
1 70
1 71
1 72
1 73
1 74
1 75
1 76
1 77
1 78
1 79
1 80
1 81
1 82
1 83
1 84
1 85
1 86
1 87
1 88
1 89
1 90
1 91
1 92
1 93
1 94
1 95
1 96
1 97
1 98
1 99
1 100
1 101
1 102
1 103
1 104
1 105
1 106
1 107
1 108
1 109
1 110
1 111
1 112
1 113
1 114
1 115
1 116
1 117
1 118
1 119
1 120
1 121
1 122
1 123
1 124
1 125
1 126
1 127
1 128
1 129
1 130
1 131
1 132
1 133
1 134
1 135
1 136
1 137
1 138
1 139
1 140
1 141
1 142
1 143
1 144
1 145
1 146
1 147
1 148
1 149
1 150
1 151
1 152
1 153
1 154
1 155
1 156
1 157
1 158
1 159
1 160
1 161
1 162
1 163
1 164
1 165
1 166
1 167
1 168
1 169
1 170
1 171
1 172
1 173
1 174
1 175
1 176
1 177
1 178
1 179
1 180
1 181
1 182
1 183
1 184
1 185
1 186
1 187
1 188
1 189
1 190
1 191
1 192
1 193
1 194
1 195
1 196
1 197
1 198
1 199
1 200
1 201
1 202
1 203
1 204
1 205
1 206
1 207
1 208
1 209
1 210
1 211
1 212
1 213
1 214
1 215
1 216
1 217
1 218
1 219
1 220
1 221
1 222
1 223
1 224
1 225
1 226
1 227
1 228
1 229
1 230
1 231
1 232
1 233
1 234
1 235
1 236
1 237
1 238
1 239
1 240
1 241
1 242
1 243
1 244
1 245
1 246
1 247
1 248
1 249
1 250
1 251
1 252
1 253
1 254
1 255
1 256
1 257
1 258
1 259
1 260
1 261
1 262
1 263
1 264
1 265
1 266
1 267
1 268
1 269
1 270
1 271
1 272
1 273
1 274
1 275
1 276
1 277
1 278
1 279
1 280
1 281
1 282
1 283
1 284
1 285
1 286
1 287
1 288
1 289
1 290
1 291
1 292
1 293
1 294
1 295
1 296
1 297
1 298
1 299
1 300
1 301
1 302
1 303
1 304
1 305
1 306
1 307
1 308
1 309
1 310
1 311
1 312
1 313
1 314
1 315
1 316
1 317
1 318
1 319
1 320
1 321
1 322
1 323
1 324
1 325
1 326
1 327
1 328
1 329
1 330
1 331
1 332
1 333
1 334
1 335
1 336
1 337
1 338
1 339
1 340
1 341
1 342
1 343
1 344
1 345
1 346
1 347
1 348
1 349
1 350
1 351
1 352
1 353
1 354
1 355
1 356
1 357
1 358
1 359
1 360
1 361
1 362
1 363
1 364
1 365
1 366
1 367
1 368
1 369
1 370
1 371
1 372
1 373
1 374
1 375
1 376
1 377
1 378
1 379
1 380
1 381
1 382
1 383
1 384
1 385
1 386
1 387
1 388
1 389
1 390
1 391
1 392
1 393
1 394
1 395
1 396
1 397
1 398
1 399
1 400
1 401
1 402
1 403
1 404
1 405
1 406
1 407
1 408
1 409
1 410
1 411
1 412
1 413
1 414
1 415
1 416
1 417
1 418
1 419
1 420
1 421
1 422
1 423
1 424
1 425
1 426
1 427
1 428
1 429
1 430
1 431
1 432
1 433
1 434
1 435
1 436
1 437
1 438
1 439
1 440
1 441
1 442
1 443
1 444
1 445
1 446
1 447
1 448
1 449
1 450
1 451
1 452
1 453
1 454
1 455
1 456
1 457
1 458
1 459
1 460
1 461
1 462
1 463
1 464
1 465
1 466
1 467
1 468
1 469
1 470
1 471
1 472
1 473
1 474
1 475
1 476
1 477
1 478
1 479
1 480
1 481
1 482
1 483
1 484
1 485
1 486
1 487
1 488
1 489
1 490
1 491
1 492
1 493
1 494
1 495
1 496
1 497
1 498
1 499
1 500
1 501
1 502
1 503
1 504
1 505
1 506
1 507
1 508
1 509
1 510
1 511
1 512
1 513
1 514
1 515
1 516
1 517
1 518
1 519
1 520
1 521
1 522
1 523
1 524
1 525
1 526
1 527
1 528
1 529
1 530
1 531
1 532
1 533
1 534
1 535
1 536
1 537
1 538
1 539
1 540
1 541
1 542
1 543
1 544
1 545
1 546
1 547
1 548
1 549
1 550
1 551
1 552
1 553
1 554
1 555
1 556
1 557
1 558
1 559
1 560
1 561
1 562
1 563
1 564
1 565
1 566
1 567
1 568
1 569
1 570
1 571
1 572
1 573
1 574
1 575
1 576
1 577
1 578
1 579
1 580
1 581
1 582
1 583
1 584
1 585
1 586
1 587
1 588
1 589
1 590
1 591
1 592
1 593
1 594
1 595
1 596
1 597
1 598
1 599
1 600
1 601
1 602
1 603
1 604
1 605
1 606
1 607
1 608
1 609
1 610
1 611
1 612
1 613
1 614
1 615
1 616
1 617
1 618
1 619
1 620
1 621
1 622
1 623
1 624
1 625
1 626
1 627
1 628
1 629
1 630
1 631
1 632
1 633
1 634
1 635
1 636
1 637
1 638
1 639
1 640
1 641
1 642
1 643
1 644
1 645
1 646
1 647
1 648
1 649
1 650
1 651
1 652
1 653
1 654
1 655
1 656
1 657
1 658
1 659
1 660
1 661
1 662
1 663
1 664
1 665
1 666
1 667
1 668
1 669
1 670
1 671
1 672
1 673
1 674
1 675
1 676
1 677
1 678
1 679
1 680
1 681
1 682
1 683
1 684
1 685
1 686
1 687
1 688
1 689
1 690
1 691
1 692
1 693
1 694
1 695
1 696
1 697
1 698
1 699
1 700
1 701
1 702
1 703
1 704
1 705
1 706
1 707
1 708
1 709
1 710
1 711
1 712
1 713
1 714
1 715
1 716
1 717
1 718
1 719
1 720
1 721
1 722
1 723
1 724
1 725
1 726
1 727
1 728
1 729
1 730
1 731
1 732
1 733
1 734
1 735
1 736
1 737
1 738
1 739
1 740
1 741
1 742
1 743
1 744
1 745
1 746
1 747
1 748
1 749
1 750
1 751
1 752
1 753
1 754
1 755
1 756
1 757
1 758
1 759
1 760
1 761
1 762
1 763
1 764
1 765
1 766
1 767
1 768
1 769
1 770
1 771
1 772
1 773
1 774
1 775
1 776
1 777
1 778
1 779
1 780
1 781
1 782
1 783
1 784
1 785
1 786
1 787
1 788
1 789
1 790
1 791
1 792
1 793
1 794
1 795
1 796
1 797
1 798
1 799
1 800
1 801
1 802
1 803
1 804
1 805
1 806
1 807
CELL_TYPES 808
1 1 1 1 1 1 1 1 1 1 1 1 1 1 1 1 1 1 1 1 1 1 1 1 1 1 1 1 1 1 1 1 1 1 1 1 1 1 1 1 1 1 1 1 1 1 1 1 1 1 1 1 1 1 1 1 1 1 1 1 1 1 1 1 1 1 1 1 1 1 1 1 1 1 1 1 1 1 1 1 1 1 1 1 1 1 1 1 1 1 1 1 1 1 1 1 1 1 1 1 1 1 1 1 1 1 1 1 1 1 1 1 1 1 1 1 1 1 1 1 1 1 1 1 1 1 1 1 1 1 1 1 1 1 1 1 1 1 1 1 1 1 1 1 1 1 1 1 1 1 1 1 1 1 1 1 1 1 1 1 1 1 1 1 1 1 1 1 1 1 1 1 1 1 1 1 1 1 1 1 1 1 1 1 1 1 1 1 1 1 1 1 1 1 1 1 1 1 1 1 1 1 1 1 1 1 1 1 1 1 1 1 1 1 1 1 1 1 1 1 1 1 1 1 1 1 1 1 1 1 1 1 1 1 1 1 1 1 1 1 1 1 1 1 1 1 1 1 1 1 1 1 1 1 1 1 1 1 1 1 1 1 1 1 1 1 1 1 1 1 1 1 1 1 1 1 1 1 1 1 1 1 1 1 1 1 1 1 1 1 1 1 1 1 1 1 1 1 1 1 1 1 1 1 1 1 1 1 1 1 1 1 1 1 1 1 1 1 1 1 1 1 1 1 1 1 1 1 1 1 1 1 1 1 1 1 1 1 1 1 1 1 1 1 1 1 1 1 1 1 1 1 1 1 1 1 1 1 1 1 1 1 1 1 1 1 1 1 1 1 1 1 1 1 1 1 1 1 1 1 1 1 1 1 1 1 1 1 1 1 1 1 1 1 1 1 1 1 1 1 1 1 1 1 1 1 1 1 1 1 1 1 1 1 1 1 1 1 1 1 1 1 1 1 1 1 1 1 1 1 1 1 1 1 1 1 1 1 1 1 1 1 1 1 1 1 1 1 1 1 1 1 1 1 1 1 1 1 1 1 1 1 1 1 1 1 1 1 1 1 1 1 1 1 1 1 1 1 1 1 1 1 1 1 1 1 1 1 1 1 1 1 1 1 1 1 1 1 1 1 1 1 1 1 1 1 1 1 1 1 1 1 1 1 1 1 1 1 1 1 1 1 1 1 1 1 1 1 1 1 1 1 1 1 1 1 1 1 1 1 1 1 1 1 1 1 1 1 1 1 1 1 1 1 1 1 1 1 1 1 1 1 1 1 1 1 1 1 1 1 1 1 1 1 1 1 1 1 1 1 1 1 1 1 1 1 1 1 1 1 1 1 1 1 1 1 1 1 1 1 1 1 1 1 1 1 1 1 1 1 1 1 1 1 1 1 1 1 1 1 1 1 1 1 1 1 1 1 1 1 1 1 1 1 1 1 1 1 1 1 1 1 1 1 1 1 1 1 1 1 1 1 1 1 1 1 1 1 1 1 1 1 1 1 1 1 1 1 1 1 1 1 1 1 1 1 1 1 1 1 1 1 1 1 1 1 1 1 1 1 1 1 1 1 1 1 1 1 1 1 1 1 1 1 1 1 1 1 1 1 1 1 1 1 1 1 1 1 1 1 1 1 1 1 1 1 1 1 1 1 1 1 1 1 1 1 1 1 1 1 1 1 1 1 1 1 1 1 1 1 1 1 1 1 1 1 1 1 1 1 1 1 1 1 1 1 1 1 1 1 1 1 1 1 1 1 1 1 1 1 1 1 1 1 1 1 1 1 1 1 1 1 1 1 1 1 1 1 1 1 1 1 1 1 1 1 1 1 
CELL_DATA 808
COLOR_SCALARS lut 1
0.0578474
0.0724518
0.0892188
0.116853
0.118257
0.102433
0.0865473
0.0750587
0.0718844
0.0764283
0.0887279
0.105402
0.124058
0.150582
0.185959
0.218096
0.25011
0.282982
0.313355
0.348839
0.372241
0.395919
0.411476
0.430443
0.446752
0.453928
0.466015
0.47386
0.483429
0.494294
0.506484
0.518327
0.533027
0.551261
0.579338
0.598929
0.634574
0.668612
0.695853
0.729527
0.765299
0.806801
0.87216
0.953539
0.831173
0.634467
0.498958
0.388089
0.308013
0.234095
0.178767
0.142292
0.107155
0.0714023
0.0506045
0.0584342
0.0632108
0.0791592
0.0806671
0.0821436
0.104822
0.0768962
0.118608
0.075607
0.0723568
0.137678
0.0726566
0.154371
0.0719806
0.0654118
0.0710382
0.173622
0.063754
0.0724635
0.0744984
0.209472
0.0641022
0.0749347
0.0874085
0.207062
0.0693707
0.0972344
0.0856177
0.107541
0.0925795
0.0796295
0.118887
0.295693
0.217155
0.0970167
0.132726
0.0947996
0.106703
0.143903
0.351132
0.219743
0.106555
0.168121
0.11633
0.117108
0.180037
0.126567
0.222361
0.189182
0.13513
0.437364
0.201137
0.141146
0.145481
0.211933
0.15776
0.156167
0.231596
0.227981
0.241328
0.171431
0.167771
0.242934
0.230356
0.222514
0.548234
0.180486
0.196306
0.176097
0.18679
0.185686
0.160303
0.152543
0.156767
0.184481
0.176911
0.236045
0.199731
0.223496
0.280521
0.174087
0.345543
0.351751
0.210732
0.157986
0.328857
0.307966
0.283785
0.26488
0.689903
0.24208
0.245175
0.12839
0.234828
0.232508
0.240614
0.109555
0.208421
0.122965
0.255975
0.245911
0.277961
0.0928202
0.0954863
0.086479
0.317896
0.0850978
0.196195
0.0901527
0.370778
0.0875024
0.249812
0.0904604
0.0721226
0.0681846
0.102507
0.0815362
0.433712
0.0781972
0.0689686
0.110022
0.183281
0.124927
0.0936805
0.117703
0.0843152
0.433215
0.126685
0.25461
0.085354
0.0762418
0.071277
0.073021
0.0795279
0.0888183
0.105966
0.120893
0.130354
0.0870006
0.180789
0.381724
0.868177
0.0962708
0.259592
0.325049
0.182499
0.29239
0.113626
0.264118
0.265962
0.195685
0.237581
0.126024
0.213784
0.211692
0.135366
0.17351
0.197777
0.221307
0.113571
0.193995
0.143031
0.139604
0.0844153
0.194809
0.277295
0.10472
1
0.13248
0.0742885
0.204593
0.0751692
0.244745
0.088608
0.121779
0.0746675
0.0761786
0.0762141
0.233683
0.283949
0.0752716
0.0799051
0.0997335
0.0746036
0.0822717
0.25858
0.0750848
0.0948422
0.0866067
0.0767107
0.24052
0.287799
0.089039
0.0899705
0.0947429
0.0828921
0.0809509
0.294592
0.0972383
0.102652
0.082436
0.0822892
0.0814254
0.106257
0.219078
0.0795316
0.214496
0.0770706
0.111146
0.08768
0.357816
0.977232
0.0743386
0.0717755
0.117525
0.0704609
0.0894055
0.216001
0.0722339
0.0696549
0.0753618
0.126657
0.305428
0.201641
0.0826494
0.390542
0.0956947
0.201192
0.136369
0.0903949
0.177362
0.0740702
0.0780274
0.0824448
0.086274
0.0902332
0.0945653
0.1039
0.114992
0.13152
0.19278
0.144008
0.115973
0.0861569
0.0769339
0.0720773
0.0701892
0.071027
0.0740227
0.0870209
0.389839
0.169787
0.314671
0.18749
0.0917625
0.120243
0.0979893
0.0884556
0.116386
0.367967
0.0786201
0.112176
0.089802
0.324591
0.189236
0.0739191
0.0802651
0.347303
0.146786
0.0717246
0.0730085
0.0718738
0.0727846
0.928217
0.208613
0.183687
0.0747083
0.328584
0.33997
0.0735143
0.210439
0.0760229
0.0733805
0.0777387
0.238393
0.22284
0.0752981
0.0816014
0.0739996
0.309407
0.352844
0.0855994
0.215417
0.0777327
0.0872917
0.0768757
0.194221
0.0890317
0.0794651
0.29063
0.298977
0.366417
0.0927469
0.159651
0.0841279
0.0942753
0.130798
0.295807
0.896789
0.325976
0.0939207
0.0875901
0.11247
0.101976
0.0959013
0.380618
0.102215
0.0910273
0.0919841
0.101704
0.0859853
0.0947095
0.352198
0.297051
0.102972
0.0805646
0.0963882
0.395229
0.106308
0.0718554
0.0696803
0.096691
0.070474
0.106322
0.072071
0.33557
0.0733932
0.110957
0.0729207
0.0991297
0.880179
0.0708584
0.11517
0.19301
0.30884
0.0720995
0.0705727
0.116546
0.0908676
0.106765
0.0971689
0.0699158
0.0814011
0.0691199
0.068735
0.0787819
0.0912774
0.0668763
0.0763477
0.0783881
0.142235
0.295708
0.0655808
0.0752054
0.115333
0.0651414
0.072497
0.0751058
0.0901601
0.420804
0.0654335
0.0701958
0.072731
0.0681686
0.0707387
0.0934842
0.071231
0.111179
0.0793242
0.0716504
0.0663373
0.0702515
0.0958563
0.0941082
0.0649107
0.0811106
0.119188
0.065485
0.090004
0.152708
0.0667168
0.197866
0.0725763
0.0698694
0.109844
0.0981688
0.0821812
0.0768143
0.0800392
0.340799
0.238347
0.274845
0.0779645
0.0752714
0.251834
0.443563
0.256372
0.143539
0.0756144
0.224977
0.0809335
0.869575
0.0763511
0.181739
0.0868496
0.0783721
0.205135
0.088258
0.20284
0.0809806
0.380518
0.0949933
0.205111
0.471385
0.192355
0.0968051
0.0889616
0.105702
0.186697
0.0903946
0.112979
0.18238
0.14779
0.095912
0.116743
0.112876
0.495159
0.120428
0.101598
0.0993279
0.157459
0.124169
0.0858139
0.106474
0.434429
0.126692
0.0791305
0.115475
0.10653
0.867025
0.0734442
0.124672
0.521938
0.0721575
0.114351
0.100323
0.100705
0.0997225
0.0731621
0.103743
0.0966255
0.0733852
0.0764242
0.0929249
0.0973182
0.104303
0.0745421
0.0846068
0.117008
0.0731818
0.0820954
0.100654
0.416169
0.0767037
0.0724303
0.106721
0.0714695
0.0770859
0.152543
0.0696099
0.0763538
0.130843
0.560437
0.0728219
0.0687058
0.16724
0.0719965
0.208937
0.0694672
0.0725812
0.375831
0.0695714
0.203961
0.0712067
0.0672744
0.0746033
0.068498
0.0705568
0.594066
0.336425
0.08489
0.0714217
0.276632
0.0998173
0.0770467
0.837253
0.0866434
0.330388
0.135693
0.331129
0.108981
0.41775
0.160657
0.202054
0.297697
0.632179
0.240334
0.350118
0.463396
0.249658
0.269487
0.498835
0.296344
0.512795
0.245884
0.719238
0.261129
0.48324
0.692534
0.225082
0.422269
0.229399
0.353696
0.205946
0.314683
0.186574
0.277312
0.25029
0.178986
0.155314
0.233082
0.234194
0.603331
0.764357
0.244145
0.147751
0.266138
0.113468
0.303336
0.0920239
0.326978
0.348513
0.110304
0.370995
0.0813452
0.394894
0.0966056
0.0839329
0.429564
0.0851268
0.0913862
0.465379
0.481833
0.101159
0.453288
0.0727745
0.407141
0.109621
0.363659
0.314661
0.257931
0.218238
0.510344
0.169143
0.0682108
0.141859
0.118526
0.114626
0.0661044
0.104232
0.0910342
0.065676
0.128979
0.85472
0.0840309
0.0673949
0.134992
0.0771315
0.0764516
0.138997
0.0768055
0.0775693
0.0873157
0.138684
0.0806011
0.100812
0.143036
0.435998
0.093784
0.142725
0.120667
0.1452
0.131128
0.14832
0.137755
0.389235
0.153856
0.137915
0.140278
0.155399
0.786792
0.139941
0.159729
0.142179
0.163409
0.346418
0.143271
0.167185
0.145305
0.173047
0.148055
0.311626
0.179916
0.154221
0.18931
0.160839
0.266618
0.197901
0.615981
0.165444
0.203216
0.171304
0.204567
0.233391
0.17628
0.200542
0.207533
0.181536
0.511277
0.177929
0.190307
0.146726
0.174194
0.127358
0.192759
0.11206
0.431204
0.142068
0.0961874
0.180663
0.0878436
0.0831224
0.36961
0.157514
0.113826
0.0945257
0.0832698
0.13281
0.116894
0.0841327
0.0780399
0.124706
0.0783333
0.087531
0.113872
0.0807608
0.100358
0.100667
0.0954368
0.308013
0.0951469
0.101811
0.0973599
0.0931828
0.100423
0.103329
0.0935497
0.246413
0.107311
0.115398
0.0965384
0.123894
0.121082
0.197175
0.133077
0.103282
0.128431
0.134058
0.160446
0.106361
0.125933
0.126023
0.119135
0.101485
0.124449
0.112499
0.111475
0.0961129
0.0764358
0.0714022
0.0562605
0.0525775
0.0595741
0.0806671
0.107155
0.1363
0.172647
0.258732
0.326493
0.449682
0.548234
0.677582
0.831208
0.960866
0.938156
0.886181
0.856435
0.822039
0.804657
0.789387
0.771584
0.761297
0.750785
0.739745
0.733534
0.727765
0.723967
0.706439
0.666546
0.629258
0.591577
0.548125
0.512171
0.475696
0.416005
0.374993
0.334036
0.272936
0.228145
0.198383
0.165822
0.135568
0.114891
0.100149
0.0873357
0.0845
0.0840899
0.0887026
0.0978467
0.106562
0.105792
0.0804102
0.0554718
