# vtk DataFile Version 1.0
Unstructured Grid Example
ASCII

DATASET UNSTRUCTURED_GRID
POINTS 3751 float
3 611 0
7 611 0
11 611 0
19 611 0
26 611 0
32 611 0
37 611 0
42 611 0
46 611 0
51 611 0
56 611 0
61 611 0
66 611 0
73 611 0
83 611 0
93 611 0
104 611 0
116 611 0
128 611 0
144 611 0
156 611 0
170 611 0
181 611 0
198 611 0
219 611 0
230 611 0
251 611 0
265 611 0
282 611 0
300 611 0
318 611 0
334 611 0
352 611 0
371 611 0
397 611 0
413 611 0
439 611 0
461 611 0
477 611 0
495 611 0
513 611 0
533 611 0
561 611 0
595 611 0
631 611 0
663 611 0
685 611 0
703 611 0
716 611 0
728 611 0
737 611 0
743 611 0
749 611 0
756 611 0
762 611 0
0 608 0
758 608 0
5 607 0
9 607 0
34 607 0
55 607 0
384 607 0
762 607 0
16 606 0
69 606 0
752 606 0
22 605 0
29 605 0
43 605 0
48 605 0
79 605 0
86 605 0
39 604 0
52 604 0
59 604 0
241 604 0
742 604 0
758 604 0
0 603 0
108 603 0
762 603 0
7 602 0
12 602 0
64 601 0
100 601 0
129 601 0
149 601 0
160 601 0
18 600 0
26 600 0
46 600 0
50 600 0
54 600 0
73 600 0
343 600 0
675 600 0
721 600 0
733 600 0
41 599 0
209 599 0
707 599 0
753 599 0
0 598 0
35 598 0
59 598 0
80 598 0
226 598 0
253 598 0
267 598 0
291 598 0
613 598 0
646 598 0
746 598 0
93 597 0
578 597 0
47 596 0
55 596 0
762 596 0
40 595 0
119 595 0
180 595 0
196 595 0
323 595 0
757 595 0
9 594 0
22 594 0
28 594 0
61 594 0
73 594 0
140 594 0
375 594 0
45 593 0
50 593 0
67 593 0
410 593 0
0 592 0
35 592 0
103 592 0
305 592 0
451 592 0
488 592 0
40 591 0
433 591 0
691 591 0
733 591 0
751 591 0
15 590 0
48 590 0
54 590 0
59 590 0
742 590 0
762 590 0
87 589 0
45 588 0
51 588 0
71 588 0
78 588 0
128 588 0
160 588 0
242 588 0
355 588 0
21 587 0
40 587 0
56 587 0
64 587 0
530 587 0
714 587 0
217 586 0
391 586 0
757 586 0
0 585 0
53 585 0
95 585 0
664 585 0
34 584 0
45 584 0
109 584 0
339 584 0
6 583 0
27 583 0
49 583 0
56 583 0
60 583 0
16 582 0
65 582 0
73 582 0
39 581 0
52 581 0
86 581 0
468 581 0
728 581 0
762 581 0
78 580 0
174 580 0
55 579 0
62 579 0
319 579 0
741 579 0
752 579 0
46 578 0
66 578 0
145 578 0
33 577 0
42 577 0
51 577 0
194 577 0
505 577 0
563 577 0
11 576 0
23 576 0
99 576 0
280 576 0
630 576 0
0 575 0
62 575 0
76 575 0
369 575 0
414 575 0
683 575 0
705 575 0
57 574 0
66 574 0
70 574 0
758 574 0
45 573 0
50 573 0
91 573 0
36 572 0
60 572 0
81 572 0
114 572 0
126 572 0
258 572 0
601 572 0
157 571 0
28 570 0
53 570 0
68 570 0
74 570 0
45 569 0
49 569 0
220 569 0
9 568 0
19 568 0
59 568 0
63 568 0
87 568 0
34 567 0
40 567 0
78 567 0
138 567 0
762 567 0
68 566 0
94 566 0
717 566 0
0 565 0
46 565 0
731 565 0
745 565 0
52 564 0
58 564 0
174 564 0
299 564 0
392 564 0
527 564 0
73 563 0
83 563 0
106 563 0
14 562 0
99 562 0
6 561 0
27 561 0
39 561 0
55 561 0
62 561 0
67 561 0
201 561 0
447 561 0
485 561 0
46 560 0
51 560 0
78 560 0
87 560 0
93 560 0
117 560 0
126 559 0
235 559 0
762 558 0
82 557 0
320 557 0
752 557 0
0 556 0
20 556 0
32 556 0
42 556 0
64 556 0
70 556 0
75 556 0
102 556 0
109 556 0
701 556 0
52 555 0
87 555 0
96 555 0
134 555 0
9 554 0
47 554 0
58 554 0
148 554 0
274 554 0
738 554 0
79 553 0
217 553 0
349 553 0
419 553 0
67 552 0
159 552 0
173 552 0
189 552 0
38 551 0
73 551 0
91 551 0
114 551 0
658 551 0
102 550 0
47 549 0
59 549 0
84 549 0
248 549 0
289 549 0
22 548 0
52 548 0
79 548 0
96 548 0
0 547 0
30 547 0
107 547 0
89 546 0
123 546 0
40 545 0
70 545 0
305 545 0
723 545 0
749 545 0
58 544 0
63 544 0
167 544 0
227 544 0
762 544 0
52 543 0
84 543 0
114 543 0
157 543 0
177 543 0
367 543 0
5 542 0
47 542 0
78 542 0
94 542 0
133 542 0
207 542 0
548 542 0
13 541 0
73 541 0
143 541 0
186 541 0
21 540 0
67 540 0
100 540 0
120 540 0
197 540 0
32 539 0
40 539 0
57 539 0
262 539 0
324 539 0
82 538 0
106 538 0
276 537 0
75 536 0
94 536 0
168 536 0
448 536 0
629 536 0
47 535 0
53 535 0
88 535 0
131 535 0
590 535 0
0 534 0
152 534 0
385 534 0
25 533 0
41 533 0
63 533 0
115 533 0
122 533 0
160 533 0
235 533 0
247 533 0
33 532 0
138 532 0
186 532 0
195 532 0
210 532 0
312 532 0
741 532 0
69 531 0
179 531 0
287 531 0
299 531 0
338 531 0
58 530 0
81 530 0
98 530 0
220 530 0
48 529 0
89 529 0
105 529 0
145 529 0
171 529 0
202 529 0
514 529 0
701 529 0
8 528 0
429 528 0
470 528 0
0 526 0
42 526 0
74 526 0
128 526 0
155 526 0
183 526 0
762 526 0
16 525 0
35 525 0
52 525 0
62 525 0
84 525 0
118 525 0
256 525 0
356 525 0
407 525 0
195 524 0
276 524 0
68 523 0
97 523 0
109 523 0
163 523 0
189 523 0
170 522 0
201 522 0
242 522 0
135 521 0
216 521 0
309 521 0
23 520 0
49 520 0
80 520 0
90 520 0
144 520 0
176 520 0
208 520 0
225 520 0
267 520 0
125 519 0
157 519 0
182 519 0
334 519 0
723 519 0
61 518 0
296 518 0
320 518 0
39 517 0
99 517 0
166 517 0
192 517 0
10 516 0
85 516 0
111 516 0
367 516 0
30 515 0
93 515 0
178 515 0
200 515 0
288 515 0
441 515 0
0 514 0
49 514 0
69 514 0
104 514 0
185 514 0
211 514 0
120 513 0
140 513 0
172 513 0
280 513 0
303 513 0
746 513 0
130 512 0
158 512 0
222 512 0
311 512 0
60 511 0
98 511 0
166 511 0
392 511 0
19 510 0
43 510 0
148 510 0
236 510 0
344 510 0
482 510 0
679 510 0
80 509 0
108 509 0
180 509 0
194 509 0
247 509 0
328 509 0
424 509 0
457 509 0
541 509 0
35 508 0
88 508 0
186 508 0
378 508 0
409 508 0
50 507 0
102 507 0
171 507 0
209 507 0
259 507 0
113 506 0
202 506 0
268 506 0
316 506 0
94 505 0
139 505 0
176 505 0
278 505 0
8 504 0
124 504 0
165 504 0
228 504 0
286 504 0
68 503 0
153 503 0
217 503 0
335 503 0
354 503 0
762 503 0
0 502 0
54 502 0
76 502 0
83 502 0
187 502 0
296 502 0
45 501 0
100 501 0
106 501 0
170 501 0
182 501 0
193 501 0
305 501 0
23 500 0
37 500 0
61 500 0
90 500 0
161 500 0
177 500 0
206 500 0
344 500 0
366 500 0
706 500 0
129 499 0
251 499 0
312 499 0
443 499 0
643 499 0
118 498 0
147 498 0
166 498 0
263 498 0
321 498 0
95 497 0
111 497 0
289 497 0
386 497 0
52 496 0
71 496 0
136 496 0
170 496 0
182 496 0
281 496 0
329 496 0
461 496 0
734 496 0
0 495 0
157 495 0
240 495 0
475 495 0
603 495 0
15 494 0
45 494 0
58 494 0
90 494 0
103 494 0
108 494 0
122 494 0
197 494 0
307 494 0
337 494 0
430 494 0
81 493 0
113 493 0
127 493 0
163 493 0
176 493 0
190 493 0
217 493 0
227 493 0
502 493 0
117 492 0
171 492 0
271 492 0
348 492 0
98 491 0
141 491 0
154 491 0
25 490 0
66 490 0
108 490 0
132 490 0
166 490 0
182 490 0
313 490 0
322 490 0
52 489 0
73 489 0
87 489 0
104 489 0
176 489 0
207 489 0
291 489 0
299 489 0
360 489 0
400 489 0
414 489 0
34 488 0
118 488 0
124 488 0
150 488 0
0 487 0
59 487 0
95 487 0
100 487 0
160 487 0
254 487 0
440 487 0
46 486 0
113 486 0
199 486 0
278 486 0
83 485 0
91 485 0
107 485 0
128 485 0
135 485 0
141 485 0
154 485 0
167 485 0
172 485 0
178 485 0
184 485 0
375 485 0
456 485 0
8 484 0
191 484 0
308 484 0
336 484 0
467 484 0
526 484 0
564 484 0
17 483 0
98 483 0
103 483 0
150 483 0
160 483 0
240 483 0
427 483 0
54 482 0
109 482 0
119 482 0
124 482 0
164 482 0
60 481 0
87 481 0
93 481 0
113 481 0
146 481 0
170 481 0
227 481 0
349 481 0
389 481 0
68 480 0
141 480 0
179 480 0
262 480 0
294 480 0
324 480 0
0 479 0
78 479 0
174 479 0
483 479 0
31 478 0
44 478 0
96 478 0
100 478 0
106 478 0
111 478 0
116 478 0
120 478 0
150 478 0
156 478 0
161 478 0
198 478 0
364 478 0
439 478 0
84 477 0
125 477 0
130 477 0
137 477 0
165 477 0
170 477 0
274 477 0
286 477 0
54 476 0
183 476 0
404 476 0
60 475 0
189 475 0
314 475 0
67 474 0
92 474 0
100 474 0
110 474 0
122 474 0
177 474 0
452 474 0
762 474 0
87 473 0
104 473 0
143 473 0
148 473 0
156 473 0
302 473 0
742 473 0
9 472 0
115 472 0
161 472 0
213 472 0
380 472 0
433 472 0
496 472 0
0 471 0
50 471 0
74 471 0
81 471 0
126 471 0
168 471 0
241 471 0
323 471 0
418 471 0
18 470 0
34 470 0
56 470 0
119 470 0
134 470 0
196 470 0
336 470 0
465 470 0
541 470 0
43 469 0
94 469 0
99 469 0
108 469 0
174 469 0
180 469 0
259 469 0
273 469 0
294 469 0
441 469 0
475 469 0
698 469 0
142 468 0
152 468 0
282 468 0
426 468 0
147 467 0
188 467 0
392 467 0
67 466 0
103 466 0
123 466 0
157 466 0
115 465 0
165 465 0
232 465 0
303 465 0
312 465 0
356 465 0
369 465 0
449 465 0
79 464 0
109 464 0
287 464 0
433 464 0
456 464 0
51 463 0
88 463 0
136 463 0
152 463 0
173 463 0
278 463 0
411 463 0
483 463 0
0 462 0
58 462 0
94 462 0
144 462 0
199 462 0
252 462 0
268 462 0
296 462 0
508 462 0
9 461 0
127 461 0
440 461 0
467 461 0
568 461 0
73 460 0
169 460 0
179 460 0
343 460 0
34 459 0
162 459 0
221 459 0
259 459 0
24 458 0
43 458 0
108 458 0
119 458 0
153 458 0
211 458 0
276 458 0
285 458 0
290 458 0
302 458 0
317 458 0
426 458 0
448 458 0
191 457 0
143 456 0
265 456 0
380 456 0
83 455 0
101 455 0
134 455 0
165 455 0
241 455 0
248 455 0
296 455 0
435 455 0
4 454 0
66 454 0
93 454 0
126 454 0
159 454 0
181 454 0
232 454 0
255 454 0
282 454 0
331 454 0
454 454 0
471 454 0
487 454 0
58 453 0
174 453 0
270 453 0
416 453 0
592 453 0
13 452 0
50 452 0
275 452 0
287 452 0
358 452 0
444 452 0
460 452 0
108 451 0
187 451 0
264 451 0
292 451 0
401 451 0
498 451 0
521 451 0
726 451 0
147 450 0
162 450 0
169 450 0
195 450 0
216 450 0
259 450 0
309 450 0
477 450 0
640 450 0
40 449 0
116 449 0
140 449 0
154 449 0
204 449 0
225 449 0
268 449 0
280 449 0
298 449 0
318 449 0
71 448 0
131 448 0
181 448 0
237 448 0
254 448 0
426 448 0
452 448 0
465 448 0
0 447 0
124 447 0
244 447 0
286 447 0
762 447 0
172 446 0
262 446 0
273 446 0
277 446 0
471 446 0
21 445 0
101 445 0
165 445 0
187 445 0
269 445 0
487 445 0
61 444 0
251 444 0
258 444 0
282 444 0
293 444 0
342 444 0
11 443 0
49 443 0
82 443 0
91 443 0
136 443 0
149 443 0
176 443 0
220 443 0
232 443 0
456 443 0
32 442 0
160 442 0
199 442 0
213 442 0
240 442 0
247 442 0
264 442 0
271 442 0
277 442 0
437 442 0
449 442 0
120 441 0
183 441 0
305 441 0
382 441 0
539 441 0
70 440 0
165 440 0
192 440 0
260 440 0
268 440 0
283 440 0
324 440 0
413 440 0
481 440 0
496 440 0
0 439 0
113 439 0
187 439 0
236 439 0
274 439 0
465 439 0
105 438 0
141 438 0
156 438 0
170 438 0
245 438 0
255 438 0
289 438 0
397 438 0
507 438 0
558 438 0
60 437 0
131 437 0
147 437 0
161 437 0
175 437 0
181 437 0
206 437 0
230 437 0
262 437 0
271 437 0
41 436 0
200 436 0
251 436 0
280 436 0
314 436 0
357 436 0
472 436 0
487 436 0
18 435 0
[...]
CELL_DATA 3751
COLOR_SCALARS lut 1
0.0301507
0.0377626
0.0465017
0.0609047
0.0616365
0.0533889
0.0451093
0.0391213
0.0374669
0.0398352
0.0462459
0.0549368
0.0646601
0.0784846
0.0969236
0.113674
0.13036
0.147493
0.163324
0.181818
0.194016
0.206357
0.214465
0.224351
0.232852
0.236592
0.242892
0.24698
0.251968
0.257631
0.263985
0.270157
0.277819
0.287323
0.301957
0.312168
0.330746
0.348487
0.362686
0.380236
0.398881
0.420513
0.454578
0.496994
0.433216
0.330691
0.260062
0.202276
0.16054
0.122013
0.0931753
0.0741641
0.0558504
0.0372156
0.0263756
0.0304565
0.0384526
0.0415515
0.0507853
0.0562267
0.0488841
0.305416
0.0329461
0.0687485
0.0794159
0.0591756
0.0772332
0.0698765
0.0439963
0.0426579
0.103301
0.117054
0.0502931
0.0464273
0.059017
0.261071
0.0973866
0.0480431
0.0412586
0.159793
0.0420445
0.0595059
0.0722296
0.0728172
0.154049
0.196491
0.2193
0.230181
0.0893714
0.0858646
0.0428141
0.0438126
0.0490645
0.0987254
0.31052
0.328828
0.181031
0.141962
0.0484034
0.269683
0.230182
0.0777308
0.0546345
0.0638638
0.058381
0.120296
0.280027
0.288271
0.292394
0.299496
0.530956
0.430187
0.105369
0.153228
0.525786
0.0400791
0.0471407
0.0618195
0.0497029
0.205545
0.270812
0.280579
0.3235
0.0778826
0.0887643
0.104275
0.0893599
0.0583611
0.0991053
0.237682
0.351561
0.0394071
0.0377131
0.0757642
0.376638
0.0717592
0.0648939
0.186159
0.330036
0.411114
0.444066
0.0486918
0.401446
0.316109
0.178833
0.111817
0.11295
0.0354205
0.0378694
0.0462725
0.149871
0.0804595
0.143414
0.037517
0.0340933
0.0795695
0.107263
0.243082
0.282965
0.328248
0.36777
0.118154
0.0487357
0.0370258
0.0534092
0.510319
0.259813
0.327957
0.396066
0.106999
0.0904934
0.0332292
0.165231
0.429662
0.071363
0.0377687
0.208193
0.378329
0.109525
0.102331
0.0335653
0.0341494
0.0388293
0.131071
0.0476839
0.0719484
0.0544553
0.0328239
0.118606
0.474814
0.237759
0.109179
0.0847227
0.322154
0.0334107
0.039224
0.39147
0.193421
0.147862
0.0390567
0.0455582
0.290795
0.0807575
0.0481884
0.0350029
0.345534
0.528893
0.595491
0.133365
0.12643
0.151805
0.38902
0.579277
0.107923
0.0386779
0.0666004
0.432537
0.459835
0.413894
0.342763
0.0361567
0.0436768
0.0506795
0.142525
0.0446248
0.0387655
0.111301
0.0723847
0.0384499
0.0753152
0.189537
0.229821
0.394692
0.661349
0.300872
0.109063
0.0402345
0.0465709
0.0560513
0.0482533
0.04336
0.375652
0.134394
0.143706
0.0415037
0.0429002
0.0846025
0.0846974
0.0624903
0.061965
0.244037
0.154118
0.0482909
0.100893
0.338744
0.113183
0.0505661
0.284123
0.222485
0.0472904
0.0459472
0.28254
0.418419
0.49173
0.611137
0.0553908
0.069178
0.12853
0.146215
0.105197
0.12843
0.120547
0.0712951
0.050203
0.0494105
0.0514042
0.302715
0.545577
0.580753
0.0556144
0.0521245
0.062875
0.0750038
0.0864872
0.150903
0.174024
0.370522
0.183013
0.0693497
0.410719
0.218851
0.114532
0.14811
0.103095
0.067464
0.0555373
0.0582907
0.0629858
0.0996995
0.115761
0.43872
0.057652
0.0761252
0.0876262
0.180185
0.137645
0.0606325
0.0589099
0.204713
0.357669
0.288954
0.0699647
0.289341
0.44117
0.543046
0.061038
0.201071
0.202849
0.214573
0.084842
0.0656587
0.0831337
0.114907
0.603098
0.0938368
0.0659679
0.066143
0.0791019
0.3341
0.323718
0.149053
0.0659141
0.0745545
0.0896144
0.115897
0.120464
0.0986036
0.0870257
0.122617
0.084764
0.0704311
0.301123
0.38557
0.269675
0.0735114
0.0734431
0.164577
0.275151
0.227958
0.0717489
0.0843992
0.104835
0.161789
0.159911
0.431491
0.129425
0.0735668
0.0779272
0.0955301
0.13313
0.20147
0.735168
0.151266
0.0758259
0.147683
0.155402
0.156666
0.0786803
0.101287
0.110462
0.167173
0.120891
0.0916254
0.0800646
0.281501
0.288214
0.0847214
0.105875
0.263972
0.0822261
0.101133
0.131261
0.522067
0.764014
0.0813956
0.0816295
0.0935699
0.12071
0.820715
0.118826
0.131492
0.427288
0.153032
0.0958167
0.0924618
0.115274
0.116885
0.124558
0.248248
0.260407
0.12508
0.125782
0.116966
0.1285
0.165528
0.237318
0.346242
0.0943454
0.110291
0.230204
0.227367
0.278835
0.0932692
0.0893514
0.108168
0.189209
0.0874439
0.0954247
0.116564
0.12662
0.105596
0.131303
0.730453
0.536502
0.141319
0.395678
0.517626
0.120064
0.101859
0.100119
0.130417
0.115976
0.0941417
0.285745
0.163022
0.126418
0.092137
0.10509
0.0940709
0.128968
0.222787
0.305375
0.380844
0.0994221
0.205737
0.111329
0.103676
0.121723
0.102317
0.0891235
0.0917837
0.10516
0.213215
0.140581
0.142903
0.185596
0.168793
0.0973566
0.104897
0.0967811
0.137048
0.0835515
0.117131
0.168479
0.195597
0.1399
0.114336
0.079507
0.214838
0.469252
0.11353
0.170742
0.183942
0.122988
0.0997116
0.0967277
0.0817087
0.150961
0.104118
0.115436
0.303539
0.157044
0.0961534
0.0796664
0.0922076
0.16215
0.322189
0.123029
0.104102
0.128775
0.0996399
0.0772254
0.116488
0.126291
0.150414
0.0864198
0.160951
0.150948
0.385226
0.145285
0.116283
0.14621
0.150144
0.118901
0.0907358
0.0968034
0.324838
0.17571
0.119454
0.139185
0.1801
0.202674
0.388427
0.697114
0.123677
0.0908152
0.0778809
0.0870833
0.183336
0.160992
0.298922
0.304624
0.771297
0.148113
0.104247
0.0792868
0.30149
0.303153
0.109835
0.0823441
0.0820874
0.119774
0.171404
0.0883844
0.106405
0.160515
0.134208
0.088827
0.139521
0.073798
0.147912
0.148294
0.108153
0.0845993
0.173447
0.138058
0.137169
0.109864
0.149652
0.154941
0.205686
0.359584
0.126175
0.112009
0.134167
0.116434
0.0796008
0.127788
0.120808
0.0718385
0.0669181
0.067155
0.0704526
0.0931
0.122395
0.183342
0.146799
0.122663
0.0926732
0.0795035
0.0632815
0.131055
0.167627
0.234202
0.607421
0.103499
0.195533
0.121185
0.251261
0.883841
0.0698844
0.103528
0.0631815
0.17977
0.125411
0.0736211
0.0571014
0.139815
0.266161
0.108631
0.131046
0.105791
0.0532342
0.0640906
0.154204
0.133417
0.254885
0.49326
0.128171
0.0709832
0.218746
0.288152
0.981389
0.173241
0.119336
0.11052
0.0803043
0.0529569
0.0493875
0.0669239
0.112107
0.127215
0.144876
0.232826
0.105811
0.0483788
0.0779304
0.0538263
0.0497684
0.0866201
0.185068
0.209567
0.399799
0.0510089
0.0450737
0.182006
0.16569
0.0537333
0.0874347
0.0651625
0.183775
0.116608
0.0415594
0.0818875
0.0443538
0.0608405
0.13362
0.135426
0.102259
0.113944
0.0772837
0.0420383
0.0469885
0.164161
0.153503
0.144364
0.193253
0.231561
0.221014
0.156464
0.0456071
0.0586868
0.0651924
0.130204
0.102175
0.0511188
0.0428459
0.0471489
0.226859
0.201559
0.112238
0.037591
0.130841
0.179127
0.0815763
0.0573113
0.0355385
0.063637
0.0737874
0.0719315
0.0534274
0.0405198
0.0424975
0.0526567
0.0699999
0.226055
0.201524
0.153857
0.0972844
0.147982
0.162675
0.219271
0.470477
0.647066
0.181081
0.0407572
0.0359471
0.0573447
0.0444911
0.25479
0.189763
0.0955279
0.0346496
0.0430919
0.052317
0.0418411
0.0969672
0.0651132
0.0488272
0.0366028
0.0613482
0.0439459
0.24823
0.188508
0.225796
0.103591
0.0660296
0.0624596
0.211917
0.153683
0.16374
0.132705
0.0905866
0.052497
0.253213
0.169777
0.11825
0.0444873
0.039738
0.0371503
0.0380593
0.0414507
0.046293
0.0564785
0.0491746
0.045023
0.13857
0.221313
0.166175
0.075684
0.0552303
0.0630109
0.0679417
0.0453456
0.0493232
0.169358
0.148472
0.0942291
0.0828816
0.198959
0.0945918
0.106123
0.157766
0.102078
0.0590794
0.0470638
0.0454139
0.055408
0.0694294
0.153437
0.452503
0.0744299
0.047718
0.0694153
0.0634159
0.052593
0.14101
0.530989
0.161205
0.0532898
0.0501773
0.22172
0.253082
0.149659
0.285428
0.135302
0.103812
0.105044
0.0946428
0.0682317
0.0561758
0.223867
0.177374
0.169419
0.188763
0.164376
0.0951203
0.0626772
0.0789077
0.143972
0.208776
0.158598
0.45823
0.128844
0.0698598
0.0631714
0.0603745
0.0715524
0.0883314
0.158822
0.123283
0.119264
0.135631
0.183382
0.742803
0.0802847
0.0638741
0.106114
0.152396
0.0746098
0.117822
0.246625
0.107733
0.0720451
0.0803079
0.059223
0.077445
0.0599871
0.199987
0.123213
0.144505
0.260475
0.2771
0.121947
0.117349
0.0795958
0.0907985
0.137661
0.122212
0.110598
0.105672
0.0987253
0.0718696
0.076116
0.0854622
0.199177
0.190594
0.138622
0.101993
0.0972827
0.0909643
0.159279
0.133875
0.0963054
0.101443
0.308748
0.165685
0.101642
0.12383
0.130607
0.494311
0.125316
0.0698785
0.0931789
0.255141
0.180524
0.0656852
0.183566
0.101744
0.204861
0.146565
0.104317
0.105785
0.0795087
0.1829
0.0670085
0.0679968
0.0771898
0.111426
0.160497
0.162681
0.110336
0.127696
0.106395
0.0759306
0.314403
0.144014
0.119762
0.120181
0.0705543
0.124235
0.10825
0.090435
0.141275
0.152235
0.12057
0.134121
0.121073
0.0762301
0.0939398
0.139653
0.0883808
0.0542963
0.221681
0.103084
0.119344
0.17469
0.115347
0.0783253
0.0566962
0.20971
0.54074
0.183814
0.133861
0.0489026
0.0591943
0.31598
0.120455
0.101112
0.132251
0.102585
0.059492
0.0745491
0.270752
0.216215
0.327356
0.663738
0.105514
0.0771309
0.0727631
0.121809
0.151226
0.0650019
0.143311
0.125368
1
0.177387
0.131783
0.118089
0.0914591
0.142547
0.132118
0.0478346
0.0439981
0.101345
0.177875
0.139745
0.125822
0.080208
0.102447
0.0674608
0.184069
0.108314
0.101536
0.144529
0.127888
0.0836509
0.0545813
0.52121
0.06905
0.0482511
0.0387199
0.0394198
0.106636
0.212534
0.15856
0.073813
0.0820345
0.0391789
0.147152
0.127563
0.0599742
0.0489943
0.0461834
0.0865477
0.293278
0.181018
0.155097
0.172235
0.176217
0.112773
0.0965674
0.0634722
0.117059
0.0932554
0.108966
0.216943
0.0786528
0.103585
0.122868
0.0736095
0.0608866
0.0389174
0.0363609
0.039705
0.153597
0.120533
0.1251
0.0624971
0.153028
0.343106
0.342991
0.141416
0.0692003
0.077393
0.0397235
0.0361333
0.0540847
0.222646
0.218175
0.121798
0.171726
0.147997
0.138095
0.0632244
0.0711956
0.0392323
0.109678
0.156201
0.092853
0.0771561
0.0599847
0.0535046
0.0416473
0.0816927
0.274925
0.217693
0.379599
0.132198
0.0980292
0.0840016
0.0693088
0.0534295
0.0519821
0.104912
0.075765
0.0368944
0.0388841
0.193532
0.0899006
0.0428808
0.0547698
0.202157
0.351097
0.115699
0.134775
0.210031
0.15545
0.163281
0.0999293
0.0588954
0.0552367
0.0378694
0.0391349
0.169582
0.0518884
0.0475982
0.0494327
0.0698235
0.0951364
0.0860336
0.0601887
0.0451403
0.118269
0.171242
0.0687789
0.155686
0.145044
0.106352
0.0623649
0.0574207
0.0534287
0.038702
0.0399824
0.0473915
0.183896
0.126634
0.120962
0.461428
0.125362
0.0723661
0.0900833
0.0397044
0.058734
0.0746268
0.141804
0.287441
0.150004
0.231505
0.14505
0.137411
0.0649298
0.046408
0.0543194
0.0780214
0.0672561
0.0468935
0.1345
0.0694712
0.0522828
0.0466825
0.0745394
0.0493809
0.0501758
0.0536441
0.0476437
0.0439359
0.0432042
0.0652714
0.0420412
0.0421924
0.0476056
0.10882
0.137235
0.252464
0.153544
0.101767
0.0751286
0.0531057
0.0506816
0.113846
0.139469
0.284582
0.190171
0.0535034
0.0420521
0.0429664
0.0848499
0.262121
0.159796
0.135927
0.049453
0.045077
0.0428899
0.0462483
0.0568366
0.0750902
0.0726848
0.11737
0.120439
0.136803
0.0518326
0.0441266
0.0424397
0.0435732
0.0721206
0.0553822
0.0445258
0.0430657
0.0547217
0.128813
0.209107
0.152006
0.114186
0.109573
0.0457511
0.0430352
0.0414526
0.0459688
0.0670126
0.239819
0.1675
0.111797
0.155553
0.516541
0.0553278
0.0401699
0.064637
0.0740867
0.0579302
0.0456997
0.0491855
0.186497
0.509343
0.0701193
0.038746
0.0535347
0.0571994
0.222843
0.18932
0.111404
0.615172
0.121348
0.0374101
0.0423989
0.0444288
0.0612552
0.0480177
0.0445451
0.100005
0.105615
0.0968416
0.122612
0.287931
0.127228
0.110554
0.0367249
0.0480914
0.0509361
0.046599
0.0969629
0.112582
0.349778
0.0824933
0.037649
0.0363049
0.0357539
0.0363495
0.0382703
0.0396898
0.0601825
0.0676361
0.07614
0.150987
0.16516
0.0392793
0.0420651
0.0530854
0.0660151
0.0451047
0.0529009
0.279369
0.756853
0.159192
0.209197
0.117893
0.105097
0.0430777
0.0348365
0.0356081
0.0371637
0.0479191
0.0557556
0.0635244
0.0719971
0.0993109
0.133593
0.213541
0.182947
0.203554
0.049877
0.243707
0.104863
0.920619
0.154716
0.112372
0.0353266
0.035674
0.0710766
0.0484877
0.0454994
0.0471147
0.0509429
0.0959347
0.0750425
0.235825
0.0924429
0.0386061
0.0406687
0.042971
0.0449669
0.0470304
0.0492883
0.0541539
0.059935
0.0685497
0.0621711
0.0745864
0.134468
0.105311
0.100479
0.0750583
0.0604461
0.0449058
0.0400987
0.0375674
0.0365833
0.03702
0.0385813
0.0696498
0.0621494
0.081578
0.408419
0.0539228
0.0746192
0.0973564
0.111107
0.191828
0.22699
0.112243
0.0396388
0.0453562
0.278155
0.168817
0.11754
0.0476915
0.0538681
0.058574
0.0777065
0.0531442
0.137976
0.0868514
0.118603
0.166956
0.203188
0.0440466
0.0451369
0.0792559
0.0712272
0.0979481
0.24014
0.18658
0.0594282
0.0884947
0.16401
0.206884
0.0977218
0.0945482
0.0592644
0.057285
0.0616965
0.0478275
0.0544174
0.0626716
0.207943
0.247662
0.107394
0.0503565
0.0521058
0.0542132
0.0788893
0.0556569
0.0661396
0.1607
0.210547
0.193188
0.0994092
0.0851608
0.0571603
0.052428
0.0610444
0.0774839
0.0528337
0.0597131
0.143691
0.112323
0.0761879
0.0917547
0.0867505
0.0694575
0.0496283
0.141567
0.0794524
0.294445
0.0594568
0.051073
0.104744
0.100278
0.0473084
0.0461039
0.169042
0.45547
0.109773
0.106889
0.0794456
0.0802865
0.0887422
0.119071
0.0609069
0.0606616
0.114996
0.0693227
0.0715162
0.0688714
0.0907425
0.151906
0.215158
0.226537
0.191788
0.0852265
0.0994159
0.104072
0.0889842
0.0654496
0.140791
0.0465529
0.0409776
0.206056
0.0815074
0.0758519
0.0584675
0.228549
0.167662
0.0729974
0.0468057
0.16918
0.0986315
0.121351
0.0795941
0.0901171
0.108381
0.0538988
0.0826917
0.0904191
0.104548
0.0620376
0.109588
0.243279
0.215741
0.0445529
0.0385274
0.0628341
0.209282
0.192412
0.151145
0.111461
0.105171
0.1242
0.0871731
0.113805
0.041835
0.241229
0.199738
0.257265
0.109644
0.0958041
0.0836449
0.131254
0.085441
0.0522421
0.112353
0.126266
0.0601213
0.181018
0.227863
0.118408
0.140914
0.0765066
0.0414697
0.0373836
0.0358569
0.0380528
0.128806
0.106391
0.10459
0.133345
0.135318
0.0771402
0.158283
0.063406
0.277842
0.357476
0.111132
0.11735
0.144303
0.16015
0.0608545
0.179269
0.229301
0.125077
0.116324
0.16588
0.0448326
0.0956425
0.116056
0.138469
0.125503
0.140779
0.0961215
0.0823962
0.094347
0.0734892
0.0374613
0.0354571
0.0379361
0.0434255
0.483796
0.108731
0.0957394
0.180443
0.056794
0.644191
0.127101
0.0565685
0.222448
0.511168
0.775043
0.192196
0.159037
0.148976
0.108371
0.0451608
0.0389387
0.035478
0.171261
0.177196
0.100046
0.0943696
0.199978
0.0358195
0.0383164
0.0432809
0.0884081
0.179782
0.153298
0.175705
0.0555476
0.173524
0.237722
0.256005
0.149984
0.169258
0.171162
0.170738
0.109683
0.122682
0.127297
0.130256
0.116677
0.0545585
0.250384
0.134418
0.152418
0.13258
0.0396239
0.0364375
0.0382466
0.24849
0.198258
0.164486
0.132742
0.131183
0.0618222
0.194889
0.266336
0.132502
0.159643
0.109731
0.164357
0.0702925
0.0405182
0.049839
0.0821771
0.367938
0.233178
0.124253
0.116146
0.0496105
0.0392461
0.0661518
0.172381
0.124891
0.113873
0.0762066
0.0425315
0.174337
0.275492
0.164462
0.112387
0.0903696
0.0372626
0.0385693
0.184804
0.194427
0.198009
0.108375
0.162778
0.0537733
0.0480254
0.161266
0.183906
0.279835
0.117105
0.0446153
0.0378905
0.0625081
0.190934
0.206393
0.112278
0.106358
0.138939
0.10945
0.0405151
0.232026
0.224285
0.197811
0.157435
0.128837
0.0997693
0.0581856
0.0396068
0.0813959
0.108268
0.147732
0.221764
0.202525
0.163434
0.0454973
0.0400684
0.251656
0.24373
0.129028
0.127557
0.143824
0.07612
0.0631095
0.0404478
0.0506675
0.204244
0.199671
0.158611
0.10123
0.092156
0.046787
0.074685
0.215129
0.144824
0.0912798
0.108022
0.0464042
0.041418
0.196777
0.214416
0.190406
0.0843015
0.0402203
0.0685203
0.151479
0.122335
0.132354
0.0737261
0.0575044
0.110064
0.167094
0.15583
0.224534
0.263006
0.244289
0.0408171
0.0520813
0.188727
0.19098
0.132377
0.105519
0.0775416
0.0994947
0.0483406
0.065978
0.549638
0.309613
0.131812
0.0832116
0.117023
0.0767462
0.0580901
0.0437955
0.0438483
0.0489795
0.26104
0.0698628
0.0417131
0.105253
0.0681105
0.07413
0.0610122
0.0491372
0.210687
0.307864
0.511345
0.242534
0.181611
0.253977
0.154524
0.0666247
0.200514
0.232016
0.11791
0.0681732
0.0886068
0.090155
0.0478073
0.0544062
0.0985915
0.156852
0.16567
0.154178
0.467415
0.169902
0.136443
0.0811705
0.0618777
0.0489524
0.0431445
0.0456528
0.207264
0.385643
0.829676
0.162074
0.0586202
0.0990691
0.0447044
0.0435369
0.150051
0.217827
0.122839
0.117634
0.0582536
0.0695785
0.168554
0.178677
0.191391
0.202465
0.258025
0.0951012
0.0531512
0.0631206
0.064386
0.0499847
0.0605492
0.0910445
0.13134
0.690137
0.198382
0.252491
0.234933
0.0612525
0.0462108
0.103691
0.0670081
0.0716218
0.0532754
0.0447605
0.0474443
0.0513236
0.0585081
0.186167
0.266659
0.169404
0.125427
0.047943
0.0849218
0.0869162
0.232814
0.110753
0.0978942
0.0467873
0.127561
0.126943
0.164049
0.0821737
0.0728632
0.0462551
0.0721033
0.0530089
0.0456818
0.0901252
0.220097
0.238645
0.25268
0.125801
0.0932584
0.0637654
0.0482315
0.0448164
0.0618494
0.0481897
0.0493635
0.0630187
0.0772388
0.222318
0.137864
0.183569
0.243135
0.0788449
0.0415464
0.0563706
0.18141
0.159311
0.154826
0.0782006
0.0543914
0.0496694
0.0536699
0.0575578
0.114367
0.186882
0.331626
0.0694751
0.0472165
0.170397
0.106667
0.210924
0.0846725
0.075133
0.0728982
0.0612905
0.0389451
0.0419911
0.0687092
0.0629427
0.0485683
0.0470632
0.0502385
0.205998
0.0959553
0.0862458
0.0496392
0.0409466
0.055409
0.104724
0.12155
0.106262
0.203418
0.0505787
0.0448019
0.0424909
0.0374518
0.0482593
0.0495402
0.0866872
0.0998486
0.167085
0.299029
0.216268
0.101391
0.0599045
0.0363181
0.0568956
0.0503963
0.0620624
0.186049
0.0528351
0.0367317
0.0554162
0.0474731
0.0482611
0.131101
0.325977
0.433107
0.544291
0.229015
0.0612362
0.0446891
0.0375641
0.0387921
0.0623234
0.216861
0.133301
0.183923
0.174902
0.138051
0.0719828
0.0625989
0.0527883
0.0442593
0.0405154
0.0382533
0.0578319
0.0853145
0.14167
0.0815962
0.210493
0.0750879
0.0521697
0.038007
0.0359437
0.0450524
0.0512885
0.0473785
0.0619131
0.174754
0.187748
0.248144
0.192451
0.179379
0.0436265
0.0375736
0.0505371
0.0516674
0.192388
0.0936902
0.0787565
0.0824869
0.262749
0.458758
0.260672
0.0552899
0.0497741
0.0430882
0.0369321
0.0361647
0.0600279
0.0470106
0.111915
0.100599
0.160971
0.211655
0.0715765
0.0385016
0.037579
0.0367832
0.0361163
0.0365425
0.0369923
0.0607448
0.13753
0.209856
0.130254
0.187653
0.0355084
0.0357797
0.0473611
0.0556471
0.0506454
0.0916113
0.202546
0.093044
0.0402411
0.0383353
0.0364408
0.0424271
0.0475226
0.209918
0.147744
0.0993279
0.0622815
0.213716
0.202354
0.0473065
0.0401739
0.036026
0.0358254
0.0352234
0.0350706
0.0350715
0.0377987
0.0410619
0.0561745
0.0475747
0.0636975
0.114461
0.0487656
0.0348566
0.0397932
0.0408567
0.0628621
0.0686273
0.0741343
0.14751
0.353274
0.329239
0.170244
0.154126
0.174094
0.0384863
0.0341813
0.0347765
0.0391978
0.081417
0.0601125
0.189089
0.0339523
0.0339185
0.0344168
0.0377862
0.0391459
0.0485818
0.057618
0.0652217
0.0481554
0.0469923
0.0541806
0.219327
0.168706
0.0667984
0.0508158
0.0392854
0.0341046
0.0329342
0.0365867
0.0379081
0.0440038
0.0544633
0.0604332
0.155075
0.108201
0.0714238
0.0894796
0.169269
0.152929
0.15096
0.104692
0.0355301
0.0368697
0.0647685
0.0516319
0.111268
0.134917
0.192245
0.0487249
0.0334555
0.0371263
0.0547641
0.0762279
0.0571205
0.156996
0.0810895
0.0507796
0.0579477
0.262636
0.133389
0.0413445
0.0373449
0.0345757
0.0366158
0.0455591
0.0539364
0.0730544
0.0499613
0.0761758
0.111194
0.65321
0.0490501
0.0331586
0.0338321
0.0510337
0.0538731
0.166789
0.109383
0.0422757
0.0716236
0.232253
0.227243
0.161116
0.150696
0.0621222
0.0341314
0.0469371
0.0487968
0.197924
0.057009
0.046911
0.162401
0.0795931
0.0347735
0.046987
0.0677947
0.14753
0.151952
0.0848696
0.167387
0.148684
0.10313
0.0378275
0.0364166
0.0377535
0.0390424
0.0698536
0.0914066
0.0600845
0.0572517
0.189917
0.299212
0.142046
0.132711
0.0511665
0.0428336
0.0453214
0.04758
0.0502563
0.0817465
0.0775972
0.091925
0.1705
0.120168
0.0654317
0.0400364
0.0384241
0.0417172
0.0593468
0.1284
0.0399808
0.0576777
0.0604268
0.0730671
0.0924629
0.119077
0.0517249
0.242248
0.177628
0.407981
0.747222
0.287372
0.0487192
0.0685684
0.0729373
0.0974935
0.145635
0.050164
0.0893348
0.124229
0.143252
0.0652587
0.0439245
0.0462231
0.0482048
0.0774903
0.0406359
0.0373318
0.0392322
0.131258
0.0536324
0.0465092
0.0763011
0.0678631
0.155878
0.231189
0.38287
0.131747
0.133623
0.0568071
0.0613493
0.0774184
0.0924365
0.0748139
0.168458
0.0880328
0.0512765
0.0720075
0.120448
0.112803
0.0944284
0.0544002
0.07123
0.0781621
0.128268
0.137448
0.165579
0.129291
0.0373867
0.039411
0.321032
0.123343
0.11726
0.0581154
0.0603065