# vtk DataFile Version 1.0
Unstructured Grid Example
ASCII

DATASET UNSTRUCTURED_GRID
POINTS 3751 float
98 331 0
49 1 0
276 235 0
210 345 0
62 355 0
194 428 0
309 521 0
366 271 0
334 519 0
447 561 0
417 267 0
644 153 0
580 143 0
535 150 0
94 17 0
167 350 0
186 405 0
189 296 0
232 282 0
161 472 0
199 442 0
217 429 0
146 418 0
131 448 0
104 473 0
15 494 0
54 502 0
19 510 0
57 539 0
48 605 0
194 577 0
61 611 0
128 588 0
89 529 0
83 485 0
150 478 0
328 333 0
305 335 0
260 340 0
409 420 0
423 397 0
479 427 0
537 427 0
424 419 0
503 350 0
481 321 0
512 326 0
762 120 0
667 103 0
522 301 0
482 312 0
411 282 0
713 6 0
591 93 0
645 102 0
718 55 0
735 54 0
751 82 0
49 182 0
51 10 0
18 240 0
59 273 0
0 329 0
106 301 0
142 315 0
142 271 0
97 258 0
138 217 0
169 189 0
257 34 0
205 275 0
311 221 0
329 224 0
334 232 0
275 309 0
339 339 0
278 336 0
266 293 0
262 336 0
246 326 0
261 346 0
261 356 0
311 343 0
342 351 0
345 354 0
333 384 0
333 417 0
305 399 0
304 369 0
247 417 0
243 419 0
215 373 0
215 420 0
202 368 0
226 357 0
239 352 0
107 407 0
0 375 0
70 407 0
167 413 0
149 416 0
67 416 0
0 471 0
0 447 0
60 475 0
136 443 0
124 435 0
128 485 0
135 521 0
132 490 0
125 477 0
94 505 0
90 494 0
39 561 0
14 562 0
19 568 0
35 592 0
27 583 0
80 598 0
86 605 0
119 595 0
126 559 0
89 546 0
52 543 0
161 500 0
180 509 0
178 515 0
157 519 0
138 532 0
291 598 0
282 611 0
242 588 0
280 576 0
186 541 0
190 493 0
294 480 0
274 477 0
196 470 0
170 477 0
154 491 0
219 434 0
163 423 0
169 450 0
262 437 0
276 431 0
290 458 0
366 302 0
366 310 0
372 315 0
388 297 0
390 303 0
395 371 0
414 367 0
366 335 0
364 320 0
359 371 0
357 362 0
360 386 0
372 381 0
348 391 0
364 478 0
356 525 0
392 511 0
392 564 0
380 472 0
397 398 0
407 397 0
413 384 0
426 448 0
465 439 0
448 458 0
485 561 0
477 611 0
733 591 0
595 611 0
757 586 0
658 551 0
749 545 0
523 428 0
438 304 0
723 388 0
425 307 0
423 402 0
417 358 0
446 303 0
418 303 0
429 290 0
458 292 0
479 292 0
493 300 0
569 284 0
574 210 0
559 207 0
556 179 0
590 189 0
531 174 0
534 171 0
535 176 0
548 186 0
552 241 0
505 210 0
448 264 0
461 289 0
387 283 0
384 278 0
370 282 0
383 198 0
350 232 0
376 210 0
391 254 0
453 176 0
481 162 0
550 156 0
577 126 0
546 136 0
545 161 0
524 146 0
523 67 0
492 108 0
573 121 0
615 117 0
619 88 0
616 13 0
686 53 0
640 5 0
670 67 0
636 82 0
630 119 0
696 57 0
734 88 0
694 28 0
687 28 0
752 1 0
757 19 0
0 7 0
26 13 0
38 1 0
106 1 0
77 16 0
66 32 0
71 56 0
6 33 0
0 57 0
0 47 0
0 67 0
12 67 0
45 101 0
18 210 0
0 230 0
45 244 0
70 255 0
76 230 0
96 209 0
80 183 0
84 150 0
114 275 0
126 278 0
118 282 0
124 286 0
117 288 0
156 295 0
132 306 0
145 297 0
138 285 0
183 280 0
151 279 0
146 261 0
166 260 0
142 266 0
139 274 0
124 258 0
131 1 0
117 216 0
127 228 0
137 182 0
143 249 0
154 152 0
266 169 0
211 28 0
260 186 0
221 210 0
242 233 0
269 184 0
289 195 0
282 195 0
276 173 0
298 123 0
279 1 0
304 57 0
311 156 0
313 129 0
324 182 0
329 190 0
321 200 0
335 225 0
329 205 0
318 233 0
300 192 0
300 233 0
299 250 0
281 250 0
313 242 0
330 250 0
338 257 0
338 310 0
339 270 0
336 282 0
335 265 0
314 303 0
284 307 0
266 302 0
253 309 0
255 295 0
259 273 0
252 255 0
196 283 0
225 264 0
196 236 0
232 298 0
232 306 0
197 313 0
236 316 0
224 314 0
223 320 0
231 322 0
228 324 0
241 332 0
241 333 0
238 329 0
256 328 0
243 316 0
247 321 0
260 320 0
257 314 0
263 315 0
294 327 0
338 326 0
306 330 0
309 339 0
297 330 0
277 340 0
266 329 0
260 329 0
280 348 0
291 346 0
294 349 0
299 350 0
306 344 0
325 358 0
325 376 0
322 353 0
293 369 0
275 370 0
288 381 0
273 364 0
273 376 0
271 359 0
248 348 0
264 341 0
230 373 0
243 346 0
234 364 0
244 388 0
228 397 0
240 401 0
175 402 0
198 408 0
157 409 0
139 408 0
121 407 0
157 389 0
147 401 0
173 394 0
174 386 0
183 389 0
196 400 0
213 340 0
221 352 0
220 331 0
213 329 0
217 317 0
180 326 0
135 313 0
147 328 0
129 336 0
170 363 0
203 343 0
120 353 0
111 374 0
112 331 0
117 322 0
118 314 0
47 347 0
88 322 0
0 316 0
90 349 0
105 357 0
14 361 0
63 383 0
60 374 0
88 382 0
102 383 0
113 386 0
80 396 0
93 389 0
104 401 0
76 388 0
60 409 0
13 407 0
16 423 0
0 427 0
41 436 0
0 439 0
50 471 0
61 444 0
54 476 0
103 466 0
85 434 0
91 424 0
99 419 0
121 415 0
105 413 0
128 412 0
135 414 0
137 418 0
127 461 0
142 468 0
115 472 0
113 439 0
109 464 0
108 469 0
100 478 0
96 478 0
106 478 0
116 478 0
120 478 0
113 493 0
141 480 0
139 505 0
108 494 0
98 483 0
93 515 0
52 496 0
61 500 0
58 494 0
46 486 0
87 481 0
37 500 0
44 478 0
23 500 0
8 504 0
35 508 0
23 520 0
5 542 0
13 541 0
40 539 0
49 520 0
48 529 0
32 556 0
38 551 0
45 569 0
30 547 0
28 570 0
20 556 0
0 592 0
0 585 0
0 598 0
11 611 0
19 611 0
41 599 0
29 605 0
45 593 0
45 588 0
50 573 0
36 572 0
56 587 0
52 555 0
51 588 0
64 601 0
56 611 0
114 572 0
73 582 0
73 600 0
74 570 0
99 562 0
87 560 0
94 542 0
114 543 0
88 535 0
75 536 0
59 549 0
81 530 0
63 533 0
69 531 0
84 525 0
97 523 0
131 535 0
163 493 0
166 490 0
176 489 0
193 501 0
206 500 0
187 502 0
200 515 0
182 519 0
176 520 0
153 503 0
170 501 0
148 554 0
157 543 0
157 571 0
145 578 0
156 611 0
167 544 0
201 561 0
207 542 0
195 532 0
189 523 0
201 522 0
267 520 0
289 549 0
235 559 0
265 611 0
253 598 0
319 579 0
300 611 0
318 611 0
299 564 0
338 531 0
299 531 0
320 518 0
311 512 0
268 506 0
211 514 0
236 510 0
240 495 0
217 493 0
217 503 0
286 504 0
299 489 0
322 490 0
336 484 0
291 489 0
323 471 0
265 456 0
255 454 0
195 450 0
247 442 0
248 455 0
199 462 0
191 484 0
213 472 0
189 475 0
172 485 0
168 471 0
150 483 0
143 473 0
147 450 0
143 456 0
149 443 0
157 466 0
174 469 0
187 439 0
178 434 0
172 434 0
156 438 0
153 425 0
144 423 0
153 413 0
145 414 0
155 421 0
163 418 0
163 413 0
176 420 0
228 414 0
178 416 0
231 417 0
244 424 0
238 420 0
253 426 0
280 426 0
245 428 0
278 420 0
262 411 0
251 411 0
375 266 0
364 260 0
351 268 0
359 275 0
365 279 0
396 278 0
409 286 0
404 286 0
376 277 0
386 272 0
378 262 0
422 268 0
437 259 0
437 271 0
449 276 0
439 267 0
445 280 0
453 287 0
444 289 0
441 282 0
425 277 0
432 279 0
404 317 0
418 324 0
423 290 0
436 289 0
450 299 0
431 350 0
446 353 0
403 352 0
398 325 0
394 356 0
394 340 0
393 348 0
386 357 0
375 328 0
394 299 0
389 290 0
343 322 0
361 314 0
349 329 0
358 331 0
370 340 0
340 356 0
353 371 0
345 359 0
373 359 0
376 371 0
379 373 0
385 375 0
404 400 0
383 388 0
376 379 0
353 383 0
344 374 0
380 409 0
358 452 0
348 492 0
375 594 0
369 575 0
382 441 0
384 607 0
401 426 0
393 423 0
392 411 0
402 414 0
430 494 0
427 483 0
429 528 0
410 593 0
413 611 0
441 515 0
439 611 0
440 461 0
437 442 0
450 434 0
440 419 0
415 396 0
416 407 0
412 389 0
411 393 0
410 408 0
411 373 0
408 385 0
408 363 0
412 379 0
416 387 0
418 380 0
457 361 0
465 372 0
507 374 0
529 371 0
518 374 0
518 400 0
535 394 0
498 383 0
486 382 0
471 401 0
461 397 0
460 452 0
482 411 0
475 495 0
488 592 0
495 611 0
498 451 0
505 577 0
539 441 0
496 440 0
514 416 0
522 409 0
741 532 0
643 499 0
717 566 0
646 598 0
561 611 0
758 608 0
743 611 0
742 604 0
758 574 0
762 567 0
745 565 0
762 389 0
703 417 0
609 423 0
549 407 0
556 394 0
616 359 0
540 354 0
558 381 0
641 362 0
674 359 0
694 387 0
606 342 0
567 344 0
585 325 0
561 312 0
644 305 0
494 314 0
507 308 0
506 319 0
498 321 0
497 327 0
506 329 0
491 340 0
481 327 0
477 318 0
477 338 0
472 314 0
466 303 0
464 308 0
471 310 0
471 305 0
481 305 0
491 311 0
473 293 0
477 302 0
469 298 0
465 299 0
454 293 0
458 278 0
456 273 0
461 268 0
463 262 0
470 288 0
470 269 0
487 266 0
525 261 0
496 283 0
508 294 0
484 300 0
538 282 0
536 298 0
579 277 0
676 276 0
637 261 0
555 267 0
717 256 0
735 190 0
699 225 0
611 237 0
600 250 0
619 153 0
616 176 0
627 166 0
653 184 0
653 145 0
667 162 0
653 122 0
636 132 0
624 121 0
662 121 0
681 118 0
624 127 0
617 124 0
606 131 0
623 132 0
615 132 0
609 140 0
593 149 0
588 147 0
599 140 0
577 116 0
592 118 0
556 129 0
554 122 0
572 140 0
564 143 0
565 147 0
569 150 0
554 157 0
552 160 0
576 175 0
577 150 0
579 156 0
576 234 0
594 221 0
578 183 0
573 200 0
571 181 0
564 180 0
474 245 0
465 246 0
495 245 0
506 227 0
487 223 0
383 245 0
421 231 0
377 250 0
395 250 0
464 253 0
431 254 0
359 251 0
376 258 0
358 257 0
345 259 0
340 252 0
346 245 0
343 249 0
354 235 0
356 223 0
367 247 0
363 247 0
454 190 0
516 168 0
383 169 0
368 171 0
340 189 0
513 137 0
387 157 0
425 150 0
517 160 0
522 135 0
526 114 0
527 152 0
531 144 0
537 159 0
526 176 0
527 183 0
550 163 0
545 170 0
537 168 0
543 156 0
541 147 0
540 135 0
690 77 0
685 87 0
687 71 0
684 61 0
690 48 0
666 62 0
658 58 0
658 80 0
673 102 0
683 110 0
658 107 0
650 99 0
657 100 0
605 100 0
591 112 0
552 100 0
618 80 0
580 85 0
460 84 0
639 97 0
648 66 0
650 48 0
561 39 0
625 47 0
512 38 0
410 28 0
361 31 0
433 1 0
343 1 0
501 18 0
581 1 0
660 1 0
602 17 0
663 20 0
668 11 0
667 28 0
668 36 0
661 46 0
691 38 0
671 46 0
683 31 0
673 16 0
686 1 0
677 1 0
711 10 0
703 21 0
717 24 0
722 25 0
723 13 0
718 33 0
722 30 0
717 50 0
713 34 0
699 47 0
707 32 0
702 64 0
691 53 0
699 76 0
704 80 0
700 107 0
707 93 0
708 104 0
723 76 0
711 74 0
707 61 0
723 53 0
742 48 0
731 47 0
738 51 0
730 51 0
727 53 0
762 74 0
745 100 0
758 69 0
749 65 0
762 50 0
743 44 0
758 42 0
762 38 0
757 24 0
757 30 0
727 41 0
739 15 0
727 22 0
728 13 0
747 3 0
762 23 0
762 3 0
0 3 0
3 1 0
3 5 0
0 12 0
0 17 0
5 12 0
9 19 0
9 8 0
13 1 0
8 1 0
18 1 0
24 1 0
29 6 0
85 1 0
69 1 0
37 11 0
62 18 0
21 7 0
19 19 0
15 7 0
14 13 0
32 28 0
26 40 0
48 26 0
51 40 0
85 33 0
81 110 0
104 52 0
97 82 0
58 75 0
43 56 0
28 65 0
21 51 0
25 88 0
13 41 0
21 29 0
12 28 0
0 29 0
0 23 0
0 37 0
10 52 0
0 80 0
0 97 0
0 155 0
0 125 0
20 117 0
57 129 0
37 151 0
33 226 0
48 208 0
17 173 0
0 208 0
0 245 0
0 184 0
0 259 0
16 265 0
0 276 0
0 289 0
0 301 0
23 314 0
44 316 0
38 300 0
21 299 0
21 283 0
39 271 0
85 302 0
64 305 0
80 313 0
73 324 0
61 319 0
105 318 0
96 321 0
92 312 0
103 309 0
94 304 0
108 294 0
96 292 0
102 285 0
88 278 0
85 289 0
70 292 0
100 241 0
94 267 0
83 265 0
105 277 0
105 252 0
110 267 0
121 275 0
120 269 0
125 271 0
130 271 0
135 271 0
137 291 0
138 280 0
134 275 0
131 279 0
[...]
CELL_DATA 7300
COLOR_SCALARS ColorSpace 1
0.921569
0.745098
0.396078
0.921569
0.464052
0.396078
0.396078
0.428758
0.564706
0.396078
0.564706
0.564706
0.564706
0.921569
0.393464
0.394771
0.694118
0.921569
0.490196
0.921569
0.921569
0.921569
0.921569
0.564706
0.921569
0.921569
0.564706
0.572549
0.396078
0.416993
0.396078
0.396078
0.396078
0.396078
0.560784
0.396078
0.447059
0.733333
0.564706
0.396078
0.452288
0.396078
0.867974
0.396078
0.43268
0.598693
0.921569
0.921569
0.918954
0.921569
0.396078
0.920261
0.6
0.921569
0.513725
0.921569
0.921569
0.921569
0.921569
0.921569
0.51634
0.921569
0.402614
0.564706
0.456209
0.921569
0.402614
0.563399
0.39085
0.407843
0.541176
0.453595
0.522876
0.396078
0.657516
0.555556
0.564706
0.564706
0.564706
0.908497
0.921569
0.568627
0.564706
0.564706
0.564706
0.730719
0.564706
0.802614
0.545098
0.564706
0.396078
0.921569
0.593464
0.682353
0.50719
0.564706
0.416993
0.396078
0.397386
0.921569
0.402614
0.921569
0.839216
0.560784
0.564706
0.921569
0.91634
0.4
0.921569
0.4
0.396078
0.921569
0.921569
0.921569
0.921569
0.921569
0.921569
0.921569
0.921569
0.921569
0.396078
0.396078
0.921569
0.396078
0.920261
0.396078
0.921569
0.921569
0.921569
0.396078
0.921569
0.396078
0.695425
0.921569
0.396078
0.529412
0.453595
0.754248
0.423529
0.465359
0.396078
0.396078
0.396078
0.396078
0.564706
0.396078
0.396078
0.564706
0.396078
0.396078
0.39085
0.398693
0.394771
0.396078
0.396078
0.424837
0.39085
0.439216
0.394771
0.396078
0.921569
0.555556
0.564706
0.684967
0.564706
0.564706
0.564706
0.921569
0.564706
0.54902
0.564706
0.508497
0.396078
0.564706
0.396078
0.466667
0.449673
0.396078
0.564706
0.396078
0.396078
0.396078
0.396078
0.396078
0.435294
0.396078
0.396078
0.473203
0.921569
0.921569
0.394771
0.505882
0.564706
0.571242
0.414379
0.921569
0.452288
0.921569
0.921569
0.511111
0.396078
0.573856
0.396078
0.396078
0.396078
0.49281
0.396078
0.564706
0.445752
0.402614
0.543791
0.396078
0.396078
0.424837
0.402614
0.396078
0.396078
0.521569
0.921569
0.921569
0.921569
0.796078
0.732026
0.921569
0.921569
0.921569
0.921569
0.729412
0.878431
0.921569
0.921569
0.921569
0.921569
0.921569
0.711111
0.921569
0.521569
0.569935
0.921569
0.789542
0.564706
0.562092
0.759477
0.564706
0.564706
0.788235
0.614379
0.920261
0.564706
0.921569
0.921569
0.921569
0.921569
0.564706
0.564706
0.921569
0.921569
0.918954
0.479739
0.508497
0.921569
0.564706
0.564706
0.556863
0.564706
0.564706
0.568627
0.562092
0.564706
0.547712
0.571242
0.564706
0.397386
0.576471
0.504575
0.564706
0.405229
0.564706
0.562092
0.393464
0.564706
0.564706
0.517647
0.564706
0.405229
0.564706
0.452288
0.535948
0.564706
0.562092
0.545098
0.528105
0.564706
0.564706
0.564706
0.564706
0.564706
0.515033
0.564706
0.508497
0.564706
0.560784
0.564706
0.563399
0.394771
0.564706
0.564706
0.577778
0.564706
0.564706
0.564706
0.564706
0.921569
0.875817
0.921569
0.750327
0.921569
0.921569
0.564706
0.860131
0.564706
0.456209
0.563399
0.461438
0.559477
0.508497
0.564706
0.921569
0.564706
0.921569
0.677124
0.921569
0.921569
0.865359
0.921569
0.921569
0.921569
0.921569
0.921569
0.921569
0.921569
0.564706
0.564706
0.562092
0.921569
0.921569
0.564706
0.564706
0.518954
0.564706
0.564706
0.564706
0.554248
0.56732
0.564706
0.564706
0.398693
0.509804
0.456209
0.496732
0.560784
0.393464
0.564706
0.562092
0.921569
0.921569
0.921569
0.921569
0.518954
0.921569
0.454902
0.605229
0.630065
0.921569
0.396078
0.554248
0.560784
0.430065
0.517647
0.564706
0.564706
0.921569
0.564706
0.921569
0.534641
0.56732
0.456209
0.564706
0.512418
0.56732
0.397386
0.424837
0.392157
0.473203
0.396078
0.393464
0.921569
0.39085
0.396078
0.533333
0.396078
0.396078
0.542484
0.396078
0.396078
0.505882
0.921569
0.546405
0.55817
0.547712
0.750327
0.496732
0.917647
0.921569
0.550327
0.547712
0.921569
0.422222
0.921569
0.398693
0.80915
0.921569
0.921569
0.678431
0.563399
0.912418
0.827451
0.564706
0.921569
0.921569
0.921569
0.564706
0.921569
0.717647
0.87451
0.920261
0.559477
0.921569
0.568627
0.564706
0.563399
0.921569
0.60915
0.918954
0.921569
0.754248
0.566013
0.921569
0.815686
0.921569
0.921569
0.921569
0.921569
0.921569
0.921569
0.921569
0.921569
0.921569
0.921569
0.921569
0.921569
0.921569
0.921569
0.921569
0.921569
0.921569
0.921569
0.921569
0.921569
0.921569
0.921569
0.921569
0.921569
0.921569
0.921569
0.921569
0.921569
0.921569
0.921569
0.921569
0.921569
0.921569
0.921569
0.921569
0.920261
0.912418
0.921569
0.920261
0.921569
0.554248
0.913725
0.396078
0.732026
0.396078
0.397386
0.396078
0.915033
0.742484
0.396078
0.396078
0.401307
0.396078
0.777778
0.396078
0.396078
0.396078
0.921569
0.396078
0.921569
0.471895
0.713725
0.380392
0.584314
0.921569
0.921569
0.921569
0.921569
0.918954
0.921569
0.65098
0.921569
0.921569
0.921569
0.55817
0.921569
0.921569
0.921569
0.921569
0.921569
0.921569
0.397386
0.921569
0.687582
0.921569
0.396078
0.396078
0.396078
0.920261
0.583007
0.396078
0.396078
0.696732
0.921569
0.921569
0.921569
0.921569
0.921569
0.921569
0.402614
0.921569
0.921569
0.921569
0.586928
0.921569
0.396078
0.751634
0.396078
0.396078
0.396078
0.39085
0.396078
0.396078
0.513725
0.396078
0.407843
0.396078
0.424837
0.490196
0.396078
0.430065
0.396078
0.396078
0.511111
0.430065
0.509804
0.534641
0.396078
0.396078
0.443137
0.396078
0.396078
0.397386
0.396078
0.396078
0.396078
0.396078
0.396078
0.396078
0.396078
0.396078
0.396078
0.503268
0.396078
0.396078
0.396078
0.396078
0.396078
0.396078
0.396078
0.396078
0.396078
0.396078
0.396078
0.396078
0.396078
0.921569
0.396078
0.396078
0.396078
0.437908
0.396078
0.396078
0.396078
0.396078
0.388235
0.396078
0.505882
0.394771
0.501961
0.396078
0.449673
0.520261
0.469281
0.419608
0.477124
0.396078
0.396078
0.414379
0.439216
0.396078
0.396078
0.541176
0.396078
0.396078
0.393464
0.396078
0.396078
0.396078
0.396078
0.396078
0.396078
0.545098
0.396078
0.564706
0.457516
0.511111
0.564706
0.452288
0.449673
0.509804
0.564706
0.396078
0.568627
0.396078
0.572549
0.50719
0.388235
0.396078
0.571242
0.55817
0.520261
0.560784
0.572549
0.564706
0.564706
0.396078
0.55817
0.501961
0.564706
0.564706
0.564706
0.564706
0.509804
0.513725
0.49281
0.415686
0.564706
0.564706
0.543791
0.447059
0.564706
0.393464
0.401307
0.396078
0.396078
0.397386
0.396078
0.566013
0.396078
0.396078
0.396078
0.396078
0.396078
0.396078
0.406536
0.396078
0.396078
0.396078
0.449673
0.419608
0.396078
0.576471
0.479739
0.396078
0.396078
0.50719
0.454902
0.484967
0.396078
0.396078
0.396078
0.396078
0.396078
0.396078
0.396078
0.396078
0.396078
0.396078
0.396078
0.396078
0.396078
0.396078
0.396078
0.471895
0.401307
0.396078
0.402614
0.462745
0.401307
0.401307
0.396078
0.39085
0.403922
0.453595
0.397386
0.911111
0.396078
0.396078
0.396078
0.396078
0.396078
0.396078
0.396078
0.4
0.396078
0.396078
0.920261
0.487582
0.396078
0.606536
0.396078
0.518954
0.396078
0.427451
0.921569
0.921569
0.913725
0.921569
0.921569
0.484967
0.921569
0.623529
0.396078
0.921569
0.921569
0.403922
0.773856
0.921569
0.921569
0.751634
0.397386
0.396078
0.397386
0.396078
0.396078
0.426144
0.396078
0.396078
0.396078
0.396078
0.396078
0.401307
0.636601
0.921569
0.601307
0.921569
0.921569
0.750327
0.921569
0.921569
0.921569
0.921569
0.835294
0.394771
0.921569
0.396078
0.921569
0.396078
0.396078
0.396078
0.396078
0.396078
0.396078
0.396078
0.396078
0.402614
0.498039
0.396078
0.454902
0.465359
0.396078
0.555556
0.396078
0.532026
0.479739
0.396078
0.396078
0.396078
0.396078
0.508497
0.396078
0.396078
0.396078
0.396078
0.396078
0.396078
0.501961
0.423529
0.396078
0.475817
0.488889
0.447059
0.486275
0.50719
0.396078
0.55817
0.543791
0.560784
0.564706
0.490196
0.488889
0.564706
0.513725
0.402614
0.564706
0.396078
0.52549
0.564706
0.4
0.564706
0.564706
0.517647
0.396078
0.39085
0.854902
0.856209
0.921569
0.423529
0.394771
0.873203
0.735948
0.91634
0.921569
0.921569
0.921569
0.921569
0.921569
0.909804
0.547712
0.921569
0.915033
0.921569
0.921569
0.669281
0.921569
0.921569
0.90719
0.396078
0.921569
0.385621
0.920261
0.921569
0.920261
0.840523
0.602614
0.921569
0.918954
0.921569
0.921569
0.905882
0.921569
0.920261
0.921569
0.921569
0.921569
0.921569
0.918954
0.921569
0.921569
0.729412
0.89281
0.912418
0.452288
0.426144
0.571242
0.920261
0.920261
0.396078
0.921569
0.4
0.566013
0.436601
0.794771
0.918954
0.921569
0.921569
0.921569
0.921569
0.921569
0.921569
0.921569
0.921569
0.56732
0.921569
0.921569
0.56732
0.524183
0.91634
0.701961
0.564706
0.592157
0.921569
0.56732
0.564706
0.495425
0.564706
0.396078
0.396078
0.509804
0.551634
0.39085
0.39085
0.396078
0.414379
0.462745
0.396078
0.55817
0.564706
0.920261
0.564706
0.564706
0.45098
0.56732
0.569935
0.564706
0.571242
0.564706
0.564706
0.921569
0.564706
0.564706
0.56732
0.887582
0.564706
0.793464
0.623529
0.920261
0.921569
0.564706
0.564706
0.564706
0.564706
0.921569
0.921569
0.921569
0.921569
0.921569
0.921569
0.921569
0.921569
0.921569
0.921569
0.921569
0.921569
0.921569
0.921569
0.920261
0.921569
0.911111
0.921569
0.656209
0.921569
0.896732
0.894118
0.921569
0.921569
0.921569
0.921569
0.921569
0.921569
0.921569
0.921569
0.921569
0.921569
0.921569
0.921569
0.921569
0.921569
0.921569
0.921569
0.903268
0.74902
0.921569
0.673203
0.921569
0.564706
0.921569
0.564706
0.921569
0.564706
0.878431
0.564706
0.564706
0.564706
0.564706
0.564706
0.564706
0.678431
0.920261
0.559477
0.921569
0.564706
0.921569
0.564706
0.921569
0.564706
0.564706
0.564706
0.564706
0.564706
0.532026
0.564706
0.564706
0.564706
0.564706
0.48366
0.564706
0.564706
0.564706
0.564706
0.564706
0.562092
0.467974
0.564706
0.564706
0.564706
0.504575
0.436601
0.529412
0.509804
0.495425
0.39085
0.564706
0.435294
0.449673
0.394771
0.530719
0.396078
0.466667
0.396078
0.423529
0.406536
0.526797
0.564706
0.426144
0.51634
0.564706
0.431373
0.52549
0.396078
0.563399
0.396078
0.396078
0.396078
0.573856
0.396078
0.462745
0.542484
0.56732
0.515033
0.396078
0.419608
0.509804
0.528105
0.573856
0.573856
0.45098
0.396078
0.396078
0.452288
0.566013
0.457516
0.45098
0.513725
0.564706
0.449673
0.496732
0.428758
0.564706
0.440523
0.566013
0.564706
0.396078
0.4
0.550327
0.564706
0.569935
0.564706
0.50719
0.564706
0.566013
0.423529
0.396078
0.512418
0.396078
0.396078
0.396078
0.396078
0.396078
0.396078
0.396078
0.524183
0.563399
0.436601
0.559477
0.564706
0.487582
0.393464
0.396078
0.494118
0.478431
0.49281
0.479739
0.398693
0.393464
0.396078
0.564706
0.396078
0.396078
0.407843
0.392157
0.396078
0.526797
0.396078
0.545098
0.43268
0.564706
0.396078
0.564706
0.4
0.393464
0.55817
0.392157
0.44183
0.398693
0.564706
0.564706
0.564706
0.564706
0.564706
0.564706
0.458824
0.508497
0.396078
0.495425
0.564706
0.564706
0.564706
0.564706
0.564706
0.564706
0.564706
0.564706
0.50719
0.564706
0.564706
0.564706
0.564706
0.564706
0.564706
0.564706
0.564706
0.564706
0.568627
0.564706
0.555556
0.517647
0.47451
0.396078
0.529412
0.564706
0.398693
0.530719
0.563399
0.564706
0.564706
0.453595
0.564706
0.571242
0.564706
0.486275
0.564706
0.568627
0.564706
0.456209
0.445752
0.575163
0.389542
0.51634
0.559477
0.566013
0.564706
0.559477
0.521569
0.562092
0.573856
0.573856
0.564706
0.564706
0.564706
0.564706
0.564706
0.564706
0.564706
0.564706
0.657516
0.921569
0.921569
0.921569
0.921569
0.921569
0.564706
0.564706
0.921569
0.921569
0.564706
0.564706
0.564706
0.564706
0.564706
0.564706
0.453595
0.564706
0.921569
0.828758
0.896732
0.867974
0.921569
0.921569
0.921569
0.921569
0.921569
0.921569
0.848366
0.921569
0.920261
0.564706
0.564706
0.580392
0.564706
0.486275
0.556863
0.563399
0.45098
0.563399
0.564706
0.56732
0.473203
0.563399
0.448366
0.45098
0.568627
0.564706
0.564706
0.52549
0.462745
0.559477
0.564706
0.564706
0.564706
0.564706
0.564706
0.564706
0.564706
0.564706
0.564706
0.568627
0.564706
0.564706
0.564706
0.564706
0.564706
0.921569
0.564706
0.566013
0.564706
0.564706
0.564706
0.921569
0.564706
0.564706
0.564706
0.547712
0.564706
0.563399
0.564706
0.564706
0.564706
0.677124
0.564706
0.564706
0.921569
0.564706
0.921569
0.921569
0.921569
0.687582
0.921569
0.921569
0.921569
0.921569
0.921569
0.913725
0.564706
0.746405
0.857516
0.661438
0.898039
0.921569
0.921569
0.921569
0.921569
0.921569
0.921569
0.921569
0.921569
0.921569
0.921569
0.921569
0.921569
0.921569
0.921569
0.921569
0.921569
0.921569
0.921569
0.921569
0.780392
0.921569
0.921569
0.918954
0.921569
0.921569
0.833987
0.921569
0.921569
0.704575
0.542484
0.921569
0.658824
0.921569
0.921569
0.921569
0.921569
0.921569
0.921569
0.921569
0.921569
0.793464
0.564706
0.921569
0.721569
0.569935
0.611765
0.921569
0.921569
0.566013
0.564706
0.564706
0.564706
0.564706
0.564706
0.564706
0.487582
0.499346
0.503268
0.535948
0.534641
0.568627
0.479739
0.564706
0.44183
0.452288
0.564706
0.564706
0.564706
0.564706
0.564706
0.406536
0.415686
0.563399
0.44183
0.393464
0.546405
0.473203
0.449673
0.560784
0.45098
0.564706
0.564706
0.505882
0.559477
0.467974
0.394771
0.4
0.571242
0.443137
0.448366
0.394771
0.4
0.520261
0.495425
0.535948
0.564706
0.564706
0.449673
0.562092
0.533333
0.509804
0.564706
0.564706
0.43268
0.564706
0.54902
0.564706
0.564706
0.564706
0.564706
0.564706
0.564706
0.564706
0.568627
0.564706
0.564706
0.564706
0.564706
0.921569
0.593464
0.921569
0.921569
0.921569
0.564706
0.562092
0.564706
0.921569
0.921569
0.921569
0.921569
0.921569
0.921569
0.921569
0.921569
0.921569
0.564706
0.921569
0.830065
0.564706
0.921569
0.921569
0.921569
0.921569
0.921569
0.921569
0.921569
0.921569
0.921569
0.656209
0.921569
0.905882
0.921569
0.69281
0.814379
0.792157
0.45098
0.830065
0.921569
0.596078
0.568627
0.592157
0.564706
0.647059
0.56732
0.670588
0.568627
0.793464
0.560784
0.860131
0.675817
0.921569
0.564706
0.54902
0.833987
0.564706
0.564706
0.920261
0.918954
0.920261
0.571242
0.921569
0.810458
0.921569
0.921569
0.794771
0.564706
0.760784
0.560784
0.511111
0.584314
0.819608
0.564706
0.568627
0.894118
0.564706
0.518954
0.921569
0.662745
0.807843
0.564706
0.921569
0.752941
0.921569
0.8
0.921569
0.921569
0.921569
0.85098
0.91634
0.712418
0.921569
0.921569
0.921569
0.562092
0.448366
0.396078
0.45098
0.461438
0.550327
0.437908
0.498039
0.488889
0.394771
0.396078
0.396078
0.396078
0.396078
0.396078
0.448366
0.396078
0.396078
0.396078
0.420915
0.39085
0.396078
0.396078
0.392157
0.50719
0.564706
0.396078
0.394771
0.520261
0.396078
0.396078
0.388235
0.462745
0.392157
0.396078
0.487582
0.403922
0.396078
0.396078
0.396078
0.396078
0.477124
0.396078
0.500654
0.393464
0.394771
0.396078
0.743791
0.537255
0.396078
0.921569
0.509804
0.921569
0.396078
0.396078
0.921569
0.386928
0.684967
0.921569
0.396078
0.921569
0.784314
0.669281
0.921569
0.91634
0.921569
0.921569
0.780392
0.921569
0.921569
0.921569
0.389542
0.396078
0.4
0.424837
0.487582
0.566013
0.572549
0.503268
0.577778
0.521569
0.545098
0.396078
0.491503
0.920261
0.704575
0.921569
0.921569
0.920261
0.792157
0.564706
0.616993
0.593464
0.564706
0.564706
0.742484
0.564706
0.501961
0.713725
0.921569
0.921569
0.688889
0.921569
0.645752
0.654902
0.921569
0.594771
0.853595
0.921569
0.559477
0.721569
0.563399
0.566013
0.564706
0.566013
0.912418
0.569935
0.920261
0.921569
0.921569
0.921569
0.921569
0.921569
0.921569
0.921569
0.921569
0.862745
0.861438
0.815686
0.921569
0.921569
0.921569
0.921569
0.921569
0.921569
0.921569
0.921569
0.921569
0.921569
0.921569
0.921569
0.921569
0.921569
0.921569
0.921569
0.921569
0.921569
0.921569
0.921569
0.921569
0.797386
0.921569
0.921569
0.921569
0.860131
0.921569
0.843137
0.921569
0.564706
0.396078
0.920261
0.921569
0.803922
0.921569
0.769935
0.921569
0.921569
0.756863
0.921569
0.398693
0.921569
0.593464
0.396078
0.920261
0.398693
0.4
0.473203
0.921569
0.921569
0.401307
0.738562
0.396078
0.921569
0.568627
0.394771
0.552941
0.396078
0.447059
0.564706
0.396078
0.396078
0.615686
0.564706
0.564706
0.559477
0.903268
0.813072
0.649673
0.921569
0.921569
0.917647
0.918954
0.921569
0.921569
0.921569
0.622222
0.921569
0.59085
0.920261
0.564706
0.564706
0.396078
0.899346
0.921569
0.909804
0.396078
0.562092
0.559477
0.921569
0.448366
0.684967
0.469281
0.698039
0.921569
0.921569
0.921569
0.921569
0.921569
0.921569
0.915033
0.435294
0.921569
0.917647
0.921569
0.764706
0.921569
0.72549
0.475817
0.386928
0.921569
0.921569
0.568627
0.917647
0.921569
0.921569
0.920261
0.921569
0.921569
0.921569
0.921569
0.921569
0.921569
0.921569
0.921569
0.921569
0.921569
0.921569
0.921569
0.921569
0.921569
0.921569
0.921569
0.921569
0.921569
0.921569
0.921569
0.921569
0.921569
0.921569
0.921569
0.921569
0.921569
0.921569
0.921569
0.921569
0.921569
0.921569
0.921569
0.921569
0.921569
0.921569
0.921569
0.921569
0.921569
0.921569
0.921569
0.921569
0.921569
0.921569
0.921569
0.921569
0.921569
0.921569
0.921569
0.921569
0.921569
0.921569
0.921569
0.921569
0.921569
0.921569
0.921569
0.921569
0.921569
0.921569
0.921569
0.921569
0.921569
0.921569
0.921569
0.921569
0.921569
0.921569
0.921569
0.921569
0.921569
0.921569
0.921569
0.921569
0.921569
0.921569
0.921569
0.921569
0.921569
0.921569
0.921569
0.921569
0.921569
0.921569
0.921569
0.921569
0.921569
0.921569
0.921569
0.921569
0.921569
0.921569
0.921569
0.921569
0.921569
0.921569
0.921569
0.921569
0.921569
0.921569
0.921569
0.921569
0.921569
0.921569
0.921569
0.921569
0.921569
0.921569
0.921569
0.921569
0.918954
0.921569
0.921569
0.920261
0.921569
0.921569
0.921569
0.921569
0.921569
0.921569
0.427451
0.921569
0.69281
0.836601
0.920261
0.920261
0.775163
0.921569
0.920261
0.921569
0.921569
0.921569
0.921569
0.921569
0.921569
0.921569
0.921569
0.921569
0.921569
0.921569
0.921569
0.921569
0.921569
0.921569
0.921569
0.921569
0.921569
0.921569
0.921569
0.921569
0.921569
0.921569
0.921569
0.921569
0.921569
0.921569
0.921569
0.921569
0.920261
0.920261
0.921569
0.410458
0.547712
0.385621
0.396078
0.396078
0.375163
0.74902
0.751634
0.556863
0.4
0.4
0.56732
0.396078
0.920261
0.921569
0.728105
0.396078
0.91634
0.396078
0.55817
0.750327
0.735948
0.396078
0.569935
0.43268
0.396078
0.397386
0.396078
0.396078
0.396078
0.396078
0.396078
0.386928
0.396078
0.397386
0.386928
0.396078
0.396078
0.396078
0.415686
0.415686
0.420915
0.396078
0.416993
0.416993
0.420915
0.397386
0.443137
0.396078
0.403922
0.396078
0.435294
0.401307
0.396078
0.40915
0.398693
0.396078
0.443137
0.39085
0.396078
0.39085
0.396078
0.396078
0.396078
0.396078
0.396078
0.396078
0.396078
0.396078
0.416993
0.396078
0.375163
0.396078
0.396078
0.396078
0.396078
0.396078
0.396078
0.396078
0.396078
0.396078
0.39085
0.913725
0.396078
0.396078
0.396078
0.563399
0.777778
0.427451
0.733333
0.69281
0.921569
0.623529
0.921569
0.921569
0.921569
0.602614
0.798693
0.738562
0.805229
0.913725
0.45098
0.39085
0.75817
0.921569
0.589542
0.915033
0.911111
0.921569
0.918954
0.908497
0.921569
0.921569
0.921569
0.921569
0.921569
0.921569
0.921569
0.921569
0.921569
0.921569
0.921569
0.921569
0.920261
0.921569
0.921569
0.921569
0.921569
0.921569
0.921569
0.921569
0.921569
0.921569
0.921569
0.921569
0.921569
0.921569
0.921569
0.921569
0.921569
0.921569
0.921569
0.921569
0.921569
0.921569
0.921569
0.921569
0.921569
0.921569
0.921569
0.921569
0.921569
0.921569
0.921569
0.921569
0.921569
0.921569
0.912418
0.921569
0.912418
0.921569
0.877124
0.921569
0.921569
0.921569
0.921569
0.921569
0.921569
0.921569
0.921569
0.921569
0.921569
0.921569
0.921569
0.921569
0.921569
0.921569
0.920261
0.921569
0.921569
0.921569
0.921569
0.921569
0.921569
0.921569
0.921569
0.921569
0.921569
0.921569
0.861438
0.921569
0.54902
0.904575
0.867974
0.913725
0.562092
0.671895
0.729412
0.396078
0.563399
0.396078
0.511111
0.724183
0.496732
0.739869
0.512418
0.921569
0.921569
0.913725
0.747712
0.396078
0.564706
0.871895
0.563399
0.396078
0.396078
0.396078
0.396078
0.396078
0.396078
0.396078
0.396078
0.396078
0.396078
0.396078
0.396078
0.4
0.396078
0.576471
0.396078
0.401307
0.4
0.921569
0.411765
0.738562
0.389542
0.696732
0.522876
0.921569
0.920261
0.921569
0.878431
0.921569
0.921569
0.921569
0.921569
0.920261
0.921569
0.921569
0.921569
0.921569
0.921569
0.921569
0.921569
0.921569
0.921569
0.921569
0.921569
0.921569
0.921569
0.921569
0.921569
0.579085
0.921569
0.920261
0.583007
0.921569
0.921569
0.921569
0.921569
0.921569
0.921569
0.921569
0.921569
0.921569
0.921569
0.921569
0.921569
0.766013
0.921569