# vtk DataFile Version 1.0
Unstructured Grid Example
ASCII

DATASET UNSTRUCTURED_GRID
POINTS 4696 float
447 193 0
10 159 0
61 3 0
150 191 0
33 34 0
60 28 0
58 123 0
75 160 0
77 399 0
86 226 0
138 376 0
454 246 0
206 379 0
402 238 0
463 181 0
395 123 0
360 126 0
495 58 0
7 18 0
0 81 0
27 120 0
55 46 0
73 112 0
65 36 0
71 138 0
146 198 0
45 138 0
37 203 0
15 143 0
11 147 0
13 197 0
8 327 0
41 216 0
36 233 0
37 368 0
64 369 0
62 414 0
65 437 0
143 383 0
76 405 0
163 318 0
130 309 0
139 227 0
158 242 0
93 229 0
173 346 0
211 317 0
177 286 0
167 358 0
207 358 0
173 373 0
170 387 0
336 360 0
509 499 0
234 358 0
348 345 0
212 341 0
329 330 0
313 328 0
435 221 0
512 247 0
421 198 0
361 248 0
170 205 0
184 276 0
223 200 0
333 114 0
312 130 0
284 151 0
355 127 0
387 139 0
460 146 0
501 148 0
2 38 0
10 29 0
3 42 0
11 86 0
8 98 0
2 107 0
24 104 0
16 115 0
16 46 0
26 44 0
23 4 0
26 4 0
23 26 0
37 41 0
26 7 0
40 52 0
43 61 0
43 55 0
45 16 0
46 64 0
85 77 0
93 86 0
73 85 0
56 68 0
55 116 0
54 91 0
41 91 0
77 163 0
65 170 0
70 158 0
87 121 0
90 168 0
162 171 0
136 174 0
72 175 0
156 186 0
123 180 0
70 196 0
69 175 0
66 177 0
64 175 0
26 161 0
15 184 0
47 155 0
29 151 0
57 150 0
17 130 0
37 117 0
0 153 0
12 118 0
15 150 0
13 161 0
15 175 0
3 191 0
6 176 0
49 230 0
29 205 0
79 232 0
91 213 0
95 221 0
102 224 0
33 361 0
42 239 0
101 238 0
22 338 0
21 313 0
7 318 0
0 360 0
0 412 0
0 367 0
0 428 0
26 447 0
8 471 0
23 508 0
5 510 0
89 399 0
30 406 0
67 389 0
99 388 0
75 387 0
83 380 0
35 380 0
129 374 0
125 373 0
116 375 0
107 390 0
115 400 0
134 416 0
140 401 0
158 378 0
150 384 0
146 435 0
148 372 0
142 369 0
155 367 0
156 357 0
160 344 0
163 356 0
163 346 0
153 336 0
153 322 0
125 317 0
103 344 0
143 206 0
115 230 0
104 258 0
151 315 0
161 206 0
164 245 0
165 257 0
174 286 0
170 280 0
187 204 0
192 286 0
206 270 0
228 285 0
182 314 0
209 323 0
206 334 0
172 301 0
172 289 0
167 287 0
165 290 0
183 360 0
172 335 0
181 339 0
168 361 0
186 379 0
186 389 0
190 390 0
195 398 0
201 400 0
229 393 0
198 391 0
192 360 0
220 339 0
228 351 0
241 325 0
243 265 0
234 342 0
252 356 0
248 358 0
248 498 0
264 385 0
512 478 0
474 513 0
512 456 0
493 316 0
349 292 0
318 274 0
338 263 0
351 229 0
478 252 0
348 248 0
330 260 0
319 248 0
252 259 0
271 260 0
269 206 0
259 202 0
305 209 0
381 218 0
419 205 0
502 206 0
438 216 0
475 181 0
512 198 0
484 163 0
494 163 0
487 151 0
478 160 0
464 168 0
471 151 0
455 167 0
443 173 0
458 178 0
443 188 0
439 193 0
416 196 0
437 182 0
430 200 0
270 198 0
265 198 0
173 170 0
165 178 0
276 167 0
250 169 0
288 151 0
310 168 0
437 166 0
425 153 0
436 163 0
371 147 0
394 129 0
345 145 0
341 141 0
293 132 0
276 132 0
327 144 0
337 94 0
249 1 0
323 113 0
373 116 0
394 117 0
400 128 0
401 104 0
412 116 0
427 60 0
414 31 0
413 122 0
422 127 0
428 149 0
407 128 0
467 144 0
436 145 0
469 124 0
492 91 0
504 1 0
496 1 0
508 20 0
3 10 0
0 19 0
0 6 0
6 1 0
7 13 0
13 4 0
13 21 0
14 23 0
8 24 0
6 26 0
5 24 0
1 24 0
3 23 0
5 39 0
0 36 0
0 40 0
0 58 0
0 73 0
4 98 0
0 89 0
13 76 0
8 95 0
9 71 0
16 53 0
7 44 0
10 38 0
15 29 0
20 40 0
17 23 0
23 50 0
22 58 0
18 67 0
22 98 0
22 73 0
29 89 0
24 89 0
32 85 0
26 67 0
31 49 0
33 37 0
31 29 0
28 15 0
31 17 0
24 20 0
24 17 0
23 23 0
17 16 0
16 21 0
20 13 0
20 6 0
17 12 0
25 14 0
26 1 0
28 9 0
32 1 0
39 19 0
35 11 0
39 34 0
38 38 0
37 52 0
43 40 0
50 49 0
52 51 0
47 50 0
44 45 0
48 37 0
49 27 0
50 15 0
84 1 0
75 7 0
54 14 0
85 14 0
103 1 0
109 11 0
114 1 0
99 41 0
105 22 0
95 52 0
73 36 0
65 45 0
53 26 0
53 33 0
58 57 0
54 55 0
59 70 0
73 54 0
74 60 0
85 70 0
90 63 0
81 87 0
84 103 0
73 73 0
67 80 0
66 86 0
63 83 0
54 105 0
52 82 0
46 84 0
50 92 0
49 78 0
48 72 0
49 60 0
50 55 0
42 69 0
44 58 0
38 66 0
37 73 0
42 84 0
41 107 0
45 104 0
47 129 0
50 129 0
47 136 0
46 141 0
46 152 0
49 142 0
63 140 0
51 144 0
53 139 0
51 132 0
60 130 0
62 127 0
51 107 0
69 135 0
65 109 0
67 131 0
80 109 0
83 134 0
132 115 0
160 120 0
74 145 0
151 141 0
86 151 0
70 154 0
68 142 0
65 149 0
65 142 0
86 171 0
69 162 0
80 165 0
114 160 0
117 168 0
139 169 0
155 165 0
146 187 0
155 173 0
143 183 0
136 186 0
131 172 0
132 178 0
73 178 0
59 182 0
68 187 0
62 189 0
61 178 0
59 172 0
67 164 0
67 160 0
54 167 0
49 159 0
52 159 0
50 172 0
54 183 0
57 184 0
48 187 0
34 158 0
43 186 0
29 168 0
28 180 0
26 188 0
23 186 0
25 149 0
22 154 0
29 147 0
30 142 0
41 156 0
34 154 0
32 137 0
39 131 0
41 137 0
41 124 0
44 123 0
42 111 0
42 115 0
39 122 0
30 126 0
35 109 0
26 114 0
27 127 0
35 133 0
29 136 0
26 134 0
16 140 0
17 147 0
22 142 0
9 135 0
8 126 0
10 113 0
12 111 0
6 115 0
6 109 0
2 115 0
2 119 0
2 130 0
7 141 0
7 150 0
2 156 0
0 172 0
7 158 0
11 163 0
14 169 0
15 156 0
16 162 0
21 180 0
22 183 0
18 185 0
12 175 0
8 187 0
4 187 0
9 180 0
4 193 0
5 190 0
2 194 0
2 200 0
4 203 0
8 201 0
26 199 0
11 205 0
10 199 0
26 196 0
11 195 0
22 195 0
10 192 0
59 191 0
33 193 0
62 193 0
64 195 0
65 190 0
68 192 0
86 191 0
52 197 0
53 208 0
59 202 0
49 196 0
44 208 0
42 197 0
42 207 0
54 214 0
50 211 0
53 211 0
61 209 0
64 215 0
68 214 0
85 210 0
69 235 0
78 226 0
59 216 0
55 232 0
47 236 0
47 223 0
50 216 0
44 217 0
45 229 0
34 221 0
47 213 0
27 212 0
40 208 0
37 209 0
21 218 0
2 214 0
10 210 0
24 219 0
0 219 0
13 227 0
5 227 0
12 301 0
0 324 0
25 244 0
27 268 0
31 243 0
36 278 0
22 354 0
22 346 0
39 355 0
20 359 0
14 368 0
0 340 0
7 337 0
14 497 0
5 378 0
0 462 0
4 501 0
0 510 0
9 511 0
13 513 0
40 417 0
36 463 0
35 513 0
29 384 0
39 382 0
29 374 0
38 372 0
67 379 0
62 375 0
46 380 0
63 395 0
44 399 0
66 406 0
76 513 0
93 430 0
78 446 0
86 410 0
78 394 0
78 377 0
79 373 0
94 374 0
69 264 0
71 372 0
75 373 0
69 368 0
54 366 0
49 340 0
51 372 0
53 250 0
47 253 0
49 260 0
60 244 0
64 246 0
81 250 0
86 263 0
114 323 0
101 355 0
120 348 0
122 335 0
129 339 0
131 348 0
137 372 0
140 366 0
137 357 0
136 363 0
103 365 0
128 370 0
101 373 0
106 403 0
120 383 0
125 406 0
115 406 0
105 414 0
101 420 0
115 449 0
129 420 0
129 476 0
125 415 0
136 408 0
136 403 0
134 374 0
131 400 0
144 380 0
148 379 0
147 385 0
150 387 0
147 389 0
143 398 0
149 409 0
163 397 0
157 492 0
158 397 0
170 378 0
155 373 0
164 374 0
168 370 0
165 369 0
169 355 0
163 367 0
162 361 0
141 352 0
161 365 0
160 347 0
157 330 0
143 326 0
162 334 0
165 328 0
167 320 0
166 324 0
167 331 0
170 291 0
171 310 0
167 279 0
171 276 0
170 273 0
170 250 0
162 260 0
165 249 0
163 252 0
166 276 0
162 302 0
161 310 0
161 315 0
146 318 0
158 304 0
160 318 0
145 290 0
144 313 0
143 302 0
123 302 0
115 251 0
111 279 0
128 276 0
135 255 0
135 283 0
152 251 0
161 279 0
128 222 0
131 238 0
134 228 0
127 226 0
112 217 0
105 215 0
98 214 0
113 209 0
107 194 0
119 200 0
127 212 0
127 190 0
131 199 0
132 207 0
144 223 0
136 214 0
143 215 0
136 225 0
146 234 0
149 243 0
153 247 0
166 236 0
158 246 0
163 227 0
172 220 0
155 199 0
155 220 0
154 194 0
176 240 0
176 211 0
173 228 0
174 248 0
175 253 0
173 261 0
177 277 0
180 277 0
178 274 0
188 273 0
184 272 0
179 264 0
179 226 0
211 233 0
196 222 0
223 212 0
238 219 0
246 233 0
247 223 0
244 208 0
227 272 0
250 272 0
237 276 0
217 270 0
215 259 0
199 270 0
212 250 0
228 316 0
226 300 0
207 312 0
231 306 0
238 306 0
247 317 0
247 313 0
235 327 0
242 339 0
242 335 0
234 333 0
230 332 0
223 330 0
204 326 0
191 332 0
197 339 0
195 323 0
190 322 0
191 317 0
188 277 0
188 303 0
184 292 0
185 279 0
179 311 0
187 328 0
181 334 0
179 336 0
183 336 0
176 345 0
173 341 0
183 346 0
183 349 0
188 340 0
185 340 0
190 361 0
197 350 0
190 350 0
187 361 0
184 352 0
175 358 0
176 363 0
184 372 0
187 364 0
180 374 0
181 379 0
173 384 0
180 414 0
188 386 0
188 382 0
194 382 0
192 385 0
196 378 0
194 372 0
191 371 0
194 368 0
207 376 0
199 375 0
204 373 0
202 379 0
199 381 0
204 384 0
206 428 0
214 388 0
212 392 0
219 389 0
231 387 0
226 384 0
217 370 0
242 364 0
225 358 0
228 362 0
234 363 0
219 364 0
212 361 0
205 360 0
203 358 0
227 354 0
205 352 0
200 348 0
228 344 0
230 356 0
243 342 0
247 343 0
289 262 0
255 288 0
273 287 0
302 277 0
315 268 0
318 265 0
311 300 0
312 293 0
302 291 0
287 306 0
283 313 0
255 310 0
267 308 0
251 334 0
258 322 0
271 335 0
258 363 0
268 369 0
268 447 0
278 513 0
317 449 0
306 513 0
286 493 0
291 370 0
300 329 0
297 318 0
289 317 0
330 410 0
329 384 0
456 463 0
425 474 0
465 513 0
470 505 0
481 513 0
504 510 0
512 513 0
509 509 0
512 507 0
496 503 0
497 461 0
485 489 0
460 353 0
512 301 0
459 313 0
426 357 0
343 300 0
394 312 0
406 296 0
323 266 0
320 270 0
328 284 0
331 269 0
494 266 0
374 263 0
397 271 0
456 231 0
438 240 0
419 226 0
495 225 0
414 224 0
450 223 0
393 227 0
382 227 0
373 225 0
386 231 0
370 240 0
385 245 0
403 249 0
326 244 0
340 244 0
333 242 0
325 249 0
310 240 0
309 262 0
272 249 0
315 232 0
291 228 0
322 235 0
323 224 0
337 225 0
358 229 0
344 237 0
352 221 0
361 220 0
340 215 0
317 214 0
292 214 0
314 222 0
276 216 0
298 211 0
268 212 0
278 209 0
316 207 0
341 206 0
369 208 0
349 213 0
378 208 0
421 207 0
424 209 0
431 213 0
413 214 0
424 219 0
380 213 0
448 214 0
468 222 0
442 212 0
465 212 0
451 210 0
512 211 0
435 212 0
501 189 0
512 191 0
488 198 0
468 186 0
465 196 0
460 204 0
462 185 0
460 180 0
470 180 0
473 185 0
512 185 0
503 181 0
496 184 0
477 169 0
493 176 0
512 172 0
499 165 0
481 160 0
512 154 0
499 154 0
473 167 0
477 166 0
461 168 0
474 170 0
462 177 0
461 174 0
471 172 0
453 165 0
450 165 0
448 162 0
458 162 0
449 159 0
449 154 0
453 152 0
447 152 0
431 150 0
443 156 0
441 158 0
446 167 0
429 168 0
426 174 0
440 187 0
434 184 0
444 191 0
450 192 0
454 188 0
455 178 0
458 187 0
437 200 0
441 195 0
446 196 0
435 202 0
435 196 0
426 200 0
430 193 0
415 200 0
425 203 0
418 199 0
411 198 0
416 185 0
422 188 0
286 185 0
360 185 0
396 189 0
297 191 0
322 198 0
310 198 0
389 196 0
274 204 0
277 199 0
266 202 0
260 198 0
251 200 0
231 197 0
197 196 0
197 188 0
180 186 0
237 193 0
248 191 0
261 184 0
263 190 0
270 189 0
259 181 0
259 172 0
263 181 0
239 184 0
235 179 0
230 173 0
181 180 0
195 152 0
179 171 0
190 171 0
253 161 0
264 155 0
266 169 0
270 169 0
358 155 0
280 155 0
306 159 0
303 165 0
342 170 0
[...]
CELL_DATA 9172
COLOR_SCALARS ColorSpace 1
0.559477
0.563399
0.176471
0.435294
0.555556
0.554248
0.145098
0.109804
0.301961
0.206536
0.0941176
0.303268
0.239216
0.0771242
0.554248
0.559477
0.288889
0.369935
0.50719
0.552941
0.0745098
0.403922
0.0810458
0.545098
0.142484
0.0875817
0.559477
0.56732
0.392157
0.569935
0.0732026
0.568627
0.533333
0.261438
0.436601
0.546405
0.0810458
0.0928105
0.562092
0.39085
0.43268
0.559477
0.568627
0.0745098
0.501961
0.560784
0.405229
0.189542
0.14902
0.556863
0.192157
0.309804
0.19085
0.126797
0.108497
0.138562
0.0928105
0.545098
0.433987
0.419608
0.173856
0.203922
0.547712
0.541176
0.532026
0.439216
0.515033
0.0810458
0.0941176
0.543791
0.546405
0.309804
0.431373
0.50719
0.542484
0.45098
0.0888889
0.545098
0.0745098
0.551634
0.550327
0.226144
0.0797386
0.547712
0.150327
0.481046
0.524183
0.156863
0.075817
0.0718954
0.0745098
0.156863
0.2
0.545098
0.495425
0.24183
0.541176
0.537255
0.117647
0.539869
0.547712
0.532026
0.543791
0.0784314
0.541176
0.552941
0.245752
0.075817
0.28366
0.539869
0.546405
0.261438
0.546405
0.554248
0.54902
0.551634
0.530719
0.177778
0.0954248
0.49281
0.0810458
0.0745098
0.447059
0.0823529
0.551634
0.0745098
0.0732026
0.345098
0.360784
0.494118
0.568627
0.559477
0.551634
0.0745098
0.0875817
0.133333
0.0797386
0.546405
0.550327
0.552941
0.569935
0.115033
0.422222
0.104575
0.145098
0.0915033
0.159477
0.193464
0.254902
0.262745
0.460131
0.0941176
0.160784
0.0980392
0.244444
0.155556
0.560784
0.120261
0.192157
0.547712
0.52549
0.566013
0.545098
0.559477
0.257516
0.2
0.556863
0.560784
0.133333
0.0823529
0.405229
0.487582
0.317647
0.0915033
0.145098
0.560784
0.15817
0.104575
0.137255
0.55817
0.560784
0.560784
0.559477
0.552941
0.560784
0.440523
0.12549
0.335948
0.522876
0.554248
0.54902
0.175163
0.0797386
0.324183
0.461438
0.133333
0.529412
0.265359
0.461438
0.55817
0.556863
0.55817
0.075817
0.55817
0.556863
0.555556
0.559477
0.556863
0.545098
0.315033
0.0745098
0.546405
0.55817
0.151634
0.542484
0.141176
0.237908
0.147712
0.249673
0.159477
0.541176
0.220915
0.0849673
0.375163
0.0888889
0.0928105
0.126797
0.23268
0.0993464
0.188235
0.0901961
0.151634
0.304575
0.230065
0.113725
0.256209
0.0954248
0.281046
0.172549
0.0928105
0.164706
0.34902
0.0993464
0.0993464
0.159477
0.115033
0.118954
0.256209
0.29281
0.405229
0.431373
0.16732
0.551634
0.550327
0.552941
0.554248
0.550327
0.547712
0.551634
0.550327
0.545098
0.103268
0.550327
0.550327
0.550327
0.552941
0.54902
0.253595
0.546405
0.547712
0.172549
0.355556
0.546405
0.54902
0.545098
0.543791
0.538562
0.542484
0.533333
0.538562
0.537255
0.543791
0.535948
0.538562
0.311111
0.50719
0.440523
0.543791
0.471895
0.539869
0.104575
0.550327
0.0875817
0.100654
0.203922
0.213072
0.321569
0.543791
0.0993464
0.546405
0.235294
0.54902
0.545098
0.223529
0.0901961
0.0980392
0.543791
0.542484
0.547712
0.545098
0.0980392
0.542484
0.550327
0.460131
0.496732
0.445752
0.542484
0.538562
0.416993
0.27451
0.550327
0.0810458
0.543791
0.547712
0.550327
0.538562
0.235294
0.282353
0.496732
0.447059
0.482353
0.244444
0.475817
0.330719
0.550327
0.284967
0.552941
0.550327
0.350327
0.151634
0.511111
0.555556
0.54902
0.552941
0.551634
0.550327
0.0836601
0.206536
0.0732026
0.0745098
0.291503
0.471895
0.550327
0.431373
0.333333
0.115033
0.524183
0.0771242
0.0732026
0.27451
0.14902
0.0836601
0.0771242
0.222222
0.0718954
0.522876
0.0745098
0.0941176
0.0745098
0.0745098
0.300654
0.0718954
0.0732026
0.0771242
0.196078
0.211765
0.554248
0.341176
0.495425
0.555556
0.248366
0.554248
0.0810458
0.433987
0.291503
0.146405
0.313725
0.547712
0.288889
0.320261
0.542484
0.542484
0.488889
0.534641
0.545098
0.545098
0.542484
0.543791
0.545098
0.543791
0.436601
0.504575
0.436601
0.535948
0.0901961
0.179085
0.0745098
0.215686
0.169935
0.0732026
0.175163
0.547712
0.352941
0.275817
0.546405
0.543791
0.419608
0.54902
0.543791
0.534641
0.546405
0.543791
0.537255
0.537255
0.545098
0.530719
0.534641
0.551634
0.54902
0.550327
0.555556
0.550327
0.0862745
0.0732026
0.554248
0.547712
0.538562
0.40915
0.551634
0.550327
0.0745098
0.0745098
0.0732026
0.0732026
0.0732026
0.113725
0.0732026
0.0732026
0.075817
0.0732026
0.0784314
0.538562
0.16732
0.271895
0.179085
0.550327
0.552941
0.552941
0.554248
0.551634
0.55817
0.556863
0.568627
0.481046
0.562092
0.555556
0.563399
0.560784
0.556863
0.220915
0.456209
0.215686
0.34902
0.465359
0.186928
0.0784314
0.543791
0.298039
0.0915033
0.398693
0.426144
0.193464
0.240523
0.304575
0.0849673
0.194771
0.0732026
0.260131
0.320261
0.383007
0.108497
0.0888889
0.0732026
0.121569
0.0718954
0.554248
0.559477
0.0784314
0.0732026
0.075817
0.0745098
0.452288
0.445752
0.0784314
0.0718954
0.0745098
0.554248
0.0862745
0.486275
0.0875817
0.560784
0.0954248
0.105882
0.449673
0.386928
0.227451
0.0993464
0.0875817
0.0732026
0.0797386
0.188235
0.254902
0.55817
0.56732
0.563399
0.346405
0.0836601
0.571242
0.295425
0.568627
0.569935
0.566013
0.562092
0.454902
0.559477
0.563399
0.100654
0.333333
0.562092
0.559477
0.56732
0.547712
0.563399
0.569935
0.568627
0.571242
0.254902
0.487582
0.389542
0.562092
0.109804
0.265359
0.0980392
0.456209
0.360784
0.364706
0.100654
0.482353
0.183007
0.56732
0.566013
0.560784
0.568627
0.560784
0.566013
0.568627
0.552941
0.427451
0.224837
0.36732
0.45098
0.163399
0.188235
0.381699
0.352941
0.294118
0.498039
0.142484
0.168627
0.260131
0.198693
0.363399
0.458824
0.466667
0.282353
0.0901961
0.117647
0.196078
0.115033
0.096732
0.503268
0.113725
0.118954
0.0823529
0.423529
0.0980392
0.0836601
0.108497
0.0810458
0.338562
0.168627
0.0823529
0.0862745
0.124183
0.10719
0.108497
0.096732
0.156863
0.230065
0.237908
0.526797
0.449673
0.448366
0.317647
0.436601
0.545098
0.0901961
0.546405
0.0836601
0.0836601
0.0901961
0.333333
0.0797386
0.0993464
0.295425
0.0901961
0.176471
0.0810458
0.103268
0.096732
0.184314
0.236601
0.0862745
0.552941
0.096732
0.30719
0.0901961
0.253595
0.0901961
0.555556
0.402614
0.488889
0.112418
0.401307
0.0954248
0.554248
0.419608
0.133333
0.222222
0.347712
0.328105
0.15817
0.132026
0.396078
0.321569
0.560784
0.508497
0.112418
0.555556
0.363399
0.48366
0.564706
0.559477
0.466667
0.560784
0.453595
0.160784
0.563399
0.560784
0.108497
0.113725
0.0862745
0.0928105
0.465359
0.216993
0.243137
0.509804
0.552941
0.467974
0.560784
0.10719
0.334641
0.303268
0.410458
0.32549
0.534641
0.162092
0.152941
0.532026
0.560784
0.563399
0.56732
0.568627
0.559477
0.55817
0.410458
0.569935
0.564706
0.564706
0.568627
0.566013
0.563399
0.563399
0.568627
0.569935
0.563399
0.389542
0.571242
0.562092
0.56732
0.562092
0.554248
0.155556
0.385621
0.239216
0.55817
0.139869
0.559477
0.47451
0.164706
0.541176
0.347712
0.560784
0.560784
0.562092
0.559477
0.562092
0.560784
0.563399
0.56732
0.560784
0.559477
0.563399
0.55817
0.559477
0.522876
0.562092
0.537255
0.554248
0.55817
0.559477
0.551634
0.261438
0.341176
0.377778
0.139869
0.0849673
0.162092
0.228758
0.194771
0.0784314
0.380392
0.0941176
0.0928105
0.100654
0.122876
0.117647
0.160784
0.0862745
0.096732
0.177778
0.113725
0.0784314
0.122876
0.11634
0.100654
0.0941176
0.113725
0.179085
0.481046
0.385621
0.171242
0.134641
0.524183
0.0875817
0.103268
0.0888889
0.100654
0.104575
0.0941176
0.0993464
0.0888889
0.0928105
0.0849673
0.416993
0.0915033
0.0901961
0.142484
0.105882
0.11634
0.520261
0.226144
0.464052
0.555556
0.55817
0.554248
0.560784
0.0980392
0.554248
0.462745
0.559477
0.554248
0.55817
0.141176
0.559477
0.554248
0.562092
0.550327
0.559477
0.562092
0.568627
0.562092
0.555556
0.542484
0.55817
0.55817
0.555556
0.554248
0.462745
0.321569
0.490196
0.487582
0.465359
0.35817
0.360784
0.12549
0.406536
0.554248
0.214379
0.526797
0.55817
0.555556
0.559477
0.562092
0.55817
0.563399
0.55817
0.556863
0.55817
0.121569
0.0797386
0.55817
0.488889
0.448366
0.0901961
0.559477
0.159477
0.0862745
0.55817
0.55817
0.560784
0.556863
0.487582
0.555556
0.0928105
0.504575
0.0928105
0.096732
0.0954248
0.543791
0.0928105
0.330719
0.175163
0.0862745
0.321569
0.124183
0.335948
0.137255
0.220915
0.0849673
0.103268
0.142484
0.103268
0.0901961
0.0901961
0.0810458
0.0928105
0.173856
0.0928105
0.0901961
0.303268
0.0941176
0.0888889
0.096732
0.0810458
0.0875817
0.0928105
0.12549
0.452288
0.145098
0.419608
0.369935
0.235294
0.312418
0.0993464
0.101961
0.113725
0.142484
0.134641
0.186928
0.198693
0.150327
0.126797
0.105882
0.137255
0.118954
0.203922
0.133333
0.330719
0.0888889
0.282353
0.0928105
0.103268
0.214379
0.105882
0.132026
0.0993464
0.14902
0.139869
0.111111
0.0954248
0.100654
0.168627
0.105882
0.309804
0.0810458
0.192157
0.296732
0.23268
0.15817
0.237908
0.32549
0.147712
0.162092
0.100654
0.223529
0.15817
0.346405
0.239216
0.141176
0.162092
0.109804
0.248366
0.122876
0.0941176
0.115033
0.138562
0.356863
0.0954248
0.108497
0.186928
0.228758
0.222222
0.196078
0.324183
0.115033
0.257516
0.383007
0.334641
0.317647
0.401307
0.273203
0.444444
0.511111
0.330719
0.196078
0.290196
0.230065
0.12549
0.192157
0.0954248
0.155556
0.0901961
0.181699
0.0849673
0.300654
0.394771
0.211765
0.296732
0.426144
0.499346
0.128105
0.121569
0.503268
0.201307
0.239216
0.126797
0.12549
0.120261
0.0954248
0.338562
0.426144
0.218301
0.137255
0.124183
0.0901961
0.547712
0.543791
0.543791
0.194771
0.551634
0.286275
0.552941
0.539869
0.457516
0.551634
0.471895
0.332026
0.530719
0.550327
0.526797
0.454902
0.298039
0.381699
0.214379
0.207843
0.521569
0.180392
0.423529
0.267974
0.462745
0.543791
0.51634
0.0954248
0.539869
0.346405
0.55817
0.550327
0.484967
0.465359
0.300654
0.545098
0.546405
0.257516
0.403922
0.398693
0.313725
0.375163
0.122876
0.163399
0.539869
0.356863
0.532026
0.356863
0.470588
0.181699
0.54902
0.405229
0.488889
0.54902
0.538562
0.543791
0.54902
0.555556
0.551634
0.547712
0.54902
0.546405
0.551634
0.554248
0.464052
0.45098
0.279739
0.54902
0.299346
0.31634
0.266667
0.529412
0.362092
0.359477
0.281046
0.270588
0.288889
0.166013
0.243137
0.546405
0.313725
0.427451
0.551634
0.556863
0.359477
0.392157
0.552941
0.473203
0.546405
0.552941
0.205229
0.133333
0.550327
0.172549
0.248366
0.551634
0.550327
0.543791
0.545098
0.550327
0.551634
0.551634
0.545098
0.545098
0.546405
0.550327
0.551634
0.539869
0.545098
0.550327
0.551634
0.546405
0.546405
0.545098
0.547712
0.545098
0.547712
0.546405
0.436601
0.543791
0.542484
0.545098
0.546405
0.543791
0.538562
0.542484
0.545098
0.545098
0.543791
0.537255
0.532026
0.534641
0.537255
0.534641
0.537255
0.542484
0.546405
0.538562
0.541176
0.538562
0.542484
0.547712
0.541176
0.511111
0.546405
0.473203
0.466667
0.0888889
0.373856
0.115033
0.51634
0.464052
0.532026
0.546405
0.0810458
0.545098
0.543791
0.541176
0.546405
0.535948
0.535948
0.533333
0.539869
0.541176
0.491503
0.539869
0.303268
0.542484
0.154248
0.550327
0.419608
0.533333
0.376471
0.537255
0.551634
0.542484
0.389542
0.104575
0.543791
0.437908
0.168627
0.542484
0.0718954
0.547712
0.542484
0.546405
0.0784314
0.196078
0.539869
0.550327
0.547712
0.54902
0.551634
0.554248
0.54902
0.551634
0.529412
0.54902
0.554248
0.554248
0.551634
0.554248
0.546405
0.550327
0.54902
0.545098
0.552941
0.550327
0.550327
0.550327
0.54902
0.547712
0.54902
0.547712
0.552941
0.368627
0.345098
0.321569
0.541176
0.345098
0.546405
0.4
0.54902
0.547712
0.48366
0.15817
0.352941
0.447059
0.477124
0.420915
0.138562
0.0928105
0.277124
0.545098
0.499346
0.542484
0.503268
0.547712
0.545098
0.496732
0.534641
0.545098
0.541176
0.543791
0.543791
0.534641
0.542484
0.546405
0.541176
0.547712
0.542484
0.550327
0.350327
0.252288
0.475817
0.172549
0.142484
0.551634
0.211765
0.254902
0.230065
0.166013
0.288889
0.388235
0.124183
0.511111
0.294118
0.542484
0.541176
0.541176
0.54902
0.546405
0.539869
0.392157
0.239216
0.543791
0.513725
0.550327
0.422222
0.547712
0.54902
0.402614
0.484967
0.54902
0.543791
0.377778
0.467974
0.460131
0.403922
0.304575
0.247059
0.52549
0.452288
0.385621
0.454902
0.550327
0.464052
0.162092
0.547712
0.551634
0.554248
0.462745
0.231373
0.4
0.54902
0.24183
0.175163
0.227451
0.491503
0.352941
0.464052
0.240523
0.278431
0.0771242
0.345098
0.479739
0.448366
0.172549
0.44183
0.496732
0.520261
0.397386
0.0901961
0.547712
0.550327
0.39085
0.551634
0.550327
0.551634
0.541176
0.550327
0.453595
0.154248
0.410458
0.105882
0.466667
0.108497
0.552941
0.550327
0.545098
0.550327
0.346405
0.239216
0.448366
0.547712
0.551634
0.54902
0.546405
0.552941
0.550327
0.551634
0.560784
0.555556
0.552941
0.552941
0.551634
0.552941
0.550327
0.551634
0.552941
0.547712
0.407843
0.477124
0.552941
0.554248
0.517647
0.555556
0.291503
0.551634
0.440523
0.547712
0.547712
0.554248
0.290196
0.552941
0.55817
0.555556
0.550327
0.555556
0.550327
0.47451
0.554248
0.55817
0.554248
0.262745
0.562092
0.487582
0.559477
0.509804
0.155556
0.554248
0.105882
0.534641
0.0771242
0.0810458
0.286275
0.500654
0.0732026
0.312418
0.505882
0.0784314
0.104575
0.55817
0.552941
0.181699
0.449673
0.51634
0.0888889
0.0745098
0.413072
0.281046
0.0732026
0.177778
0.0745098
0.0745098
0.0745098
0.0732026
0.0732026
0.0732026
0.0797386
0.0732026
0.179085
0.440523
0.0732026
0.0732026
0.0732026
0.0745098
0.0732026
0.0888889
0.422222
0.164706
0.487582
0.183007
0.103268
0.36732
0.0980392
0.0836601
0.222222
0.0849673
0.180392
0.0849673
0.105882
0.0849673
0.196078
0.183007
0.0745098
0.0745098
0.0745098
0.252288
0.0745098
0.198693
0.0745098
0.0718954
0.0745098
0.0732026
0.0745098
0.0718954
0.0732026
0.0732026
0.194771
0.0718954
0.0718954
0.0745098
0.550327
0.0718954
0.0732026
0.0732026
0.0745098
0.0732026
0.0771242
0.0718954
0.103268
0.0875817
0.0732026
0.075817
0.0745098
0.0732026
0.0732026
0.0745098
0.075817
0.075817
0.0732026
0.0745098
0.075817
0.0732026
0.534641
0.0732026
0.542484
0.0745098
0.075817
0.0718954
0.486275
0.0784314
0.132026
0.112418
0.0718954
0.0732026
0.198693
0.075817
0.0993464
0.164706
0.075817
0.075817
0.0797386
0.0771242
0.233987
0.0771242
0.0862745
0.0771242
0.152941
0.0784314
0.0745098
0.075817
0.0823529
0.0784314
0.0745098
0.0849673
0.0784314
0.291503
0.194771
0.503268
0.075817
0.0784314
0.0875817
0.0901961
0.205229
0.248366
0.384314
0.12549
0.269281
0.0823529
0.181699
0.447059
0.443137
0.351634
0.244444
0.14902
0.177778
0.075817
0.171242
0.201307
0.0810458
0.0875817
0.156863
0.545098
0.0980392
0.414379
0.24183
0.151634
0.0745098
0.490196
0.386928
0.213072
0.487582
0.299346
0.267974
0.166013
0.346405
0.288889
0.214379
0.240523
0.176471
0.541176
0.539869
0.547712
0.542484
0.500654
0.546405
0.543791
0.49281
0.546405
0.490196
0.475817
0.464052
0.419608
0.424837
0.380392
0.185621
0.478431
0.284967
0.547712
0.501961
0.423529
0.45098
0.542484
0.0771242
0.542484
0.117647
0.269281
0.47451
0.266667
0.313725
0.440523
0.526797
0.326797
0.545098
0.430065
0.542484
0.545098
0.547712
0.411765
0.543791
0.538562
0.236601
0.416993
0.546405
0.545098
0.547712
0.543791
0.546405
0.542484
0.478431
0.550327
0.0980392
0.532026
0.354248
0.43268
0.534641
0.550327
0.171242
0.486275
0.222222
0.103268
0.172549
0.138562
0.14902
0.252288
0.347712
0.443137
0.164706
0.0771242
0.317647
0.0771242
0.20915
0.069281
0.324183
0.535948
0.267974
0.419608
0.096732
0.521569
0.075817
0.550327
0.359477
0.542484
0.328105
0.551634
0.554248
0.338562
0.0732026
0.0705882
0.315033
0.215686
0.550327
0.464052
0.551634
0.537255
0.54902
0.347712
0.550327
0.54902
0.547712
0.54902
0.075817
0.0745098
0.546405
0.0718954
0.550327
0.243137
0.518954
0.196078
0.54902
0.542484
0.54902
0.546405
0.547712
0.542484
0.538562
0.539869
0.538562
0.539869
0.546405
0.538562
0.537255
0.534641
0.541176
0.541176
0.54902
0.547712
0.550327
0.54902
0.54902
0.54902
0.534641
0.545098
0.541176
0.546405
0.541176
0.535948
0.538562
0.534641
0.530719
0.534641
0.532026
0.530719
0.534641
0.533333
0.533333
0.534641
0.533333
0.529412
0.537255
0.537255
0.530719
0.533333
0.535948
0.54902
0.535948
0.547712
0.551634
0.546405
0.545098
0.539869
0.54902
0.54902
0.547712
0.550327
0.547712
0.550327
0.419608
0.552941
0.333333
0.552941
0.550327
0.546405
0.551634
0.552941
0.552941
0.547712
0.547712
0.54902
0.54902
0.54902
0.551634
0.551634
0.550327
0.550327
0.555556
0.555556
0.551634
0.555556
0.551634
0.547712
0.550327
0.542484
0.444444
0.551634
0.552941
0.256209
0.254902
0.554248
0.551634
0.554248
0.552941
0.554248
0.550327
0.551634
0.547712
0.547712
0.551634
0.444444
0.54902
0.426144
0.552941
0.551634
0.554248
0.555556
0.0771242
0.181699
0.0745098
0.0732026
0.0718954
0.0732026
0.321569
0.0745098
0.105882
0.0732026
0.0745098
0.347712
0.354248
0.269281
0.150327
0.0732026
0.462745
0.555556
0.416993
0.547712
0.0745098
0.45098
0.0732026
0.0732026
0.075817
0.0745098
0.0718954
0.175163
0.0732026
0.0745098
0.121569
0.0745098
0.0732026
0.0745098
0.0732026
0.0745098
0.0718954
0.0732026
0.0732026
0.0745098
0.0732026
0.0718954
0.0745098
0.121569
0.0745098
0.096732
0.0732026
0.0745098
0.498039
0.0745098
0.154248
0.552941
0.269281
0.554248
0.522876
0.555556
0.372549
0.470588
0.554248
0.541176
0.224837
0.0745098
0.552941
0.532026
0.550327
0.55817
0.555556
0.554248
0.547712
0.551634
0.550327
0.555556
0.556863
0.556863
0.192157
0.555556
0.555556
0.550327
0.551634
0.556863
0.213072
0.555556
0.559477
0.542484
0.556863
0.551634
0.100654
0.496732
0.224837
0.169935
0.354248
0.266667
0.431373
0.521569
0.556863
0.551634
0.546405
0.554248
0.55817
0.54902
0.396078
0.559477
0.555556
0.559477
0.556863
0.560784
0.334641
0.296732
0.555556
0.560784
0.562092
0.452288
0.233987
0.392157
0.24183
0.337255
0.551634
0.550327
0.311111
0.181699
0.201307
0.345098
0.362092
0.542484
0.392157
0.284967
0.347712
0.154248
0.0888889
0.350327
0.197386
0.180392
0.186928
0.11634
0.324183
0.100654
0.271895
0.39085
0.105882
0.146405
0.220915
0.0888889
0.168627
0.207843
0.193464
0.420915
0.223529
0.334641
0.118954
0.0875817
0.0771242
0.151634
0.0797386
0.150327
0.299346
0.15817
0.0993464
0.520261
0.269281
0.298039
0.555556
0.112418
0.269281
0.206536
0.31634
0.427451
0.215686
0.247059
0.210458
0.520261
0.471895
0.54902
0.511111
0.34902
0.48366
0.52549
0.31634
0.0797386
0.324183
0.305882
0.15817
0.223529
0.551634
0.121569
0.224837
0.264052
0.210458
0.129412
0.236601
0.0836601
0.0810458
0.0810458
0.0915033
0.0771242
0.0745098
0.0745098
0.14902
0.0732026
0.075817
0.0745098
0.0705882
0.0732026
0.0732026
0.0705882
0.0718954
0.0771242
0.137255
0.0718954
0.0745098
0.0732026
0.0784314
0.0732026
0.0732026
0.568627
0.0745098
0.0745098
0.113725
0.118954
0.0732026
0.0745098
0.154248
0.428758
0.0745098
0.104575
0.0745098
0.202614
0.35817
0.45098
0.556863
0.332026
0.0745098
0.185621
0.135948
0.320261
0.0732026
0.479739
0.403922
0.287582
0.173856
0.173856
0.0745098
0.555556
0.181699
0.559477
0.339869
0.556863
0.134641
0.188235
0.108497
0.562092
0.439216
0.556863
0.427451
0.554248
0.559477
0.563399
0.555556
0.24183
0.0810458
0.0875817
0.0784314
0.0836601
0.0745098
0.0849673
0.0954248
0.566013
0.0784314
0.0810458
0.0810458
0.0732026
0.0745098
0.0784314
0.0745098
0.0745098
0.0836601
0.0732026
0.0732026
0.0745098
0.0849673
0.0849673
0.0745098
0.0836601
0.075817
0.0993464
0.0888889
0.0836601
0.0810458
0.0954248
0.0901961
0.113725
0.0941176
0.104575
0.0836601
0.0941176
0.0993464
0.0980392
0.100654
0.0888889
0.392157
0.201307
0.551634
0.108497
0.152941
0.440523
0.563399
0.0862745
0.0823529
0.418301
0.0836601
0.156863
0.096732
0.156863
0.0797386
0.128105
0.103268
0.0901961
0.0875817
0.115033
0.0849673
0.0875817
0.0849673
0.075817
0.0862745
0.164706
0.457516
0.185621
0.568627
0.562092
0.559477
0.0784314
0.566013
0.559477
0.559477
0.564706
0.562092
0.559477
0.564706
0.185621
0.56732
0.0915033
0.435294
0.326797
0.562092
0.129412
0.318954
0.564706
0.560784
0.560784
0.559477
0.564706
0.56732
0.562092
0.562092
0.560784
0.568627
0.563399
0.563399
0.566013
0.56732
0.568627
0.560784
0.564706
0.566013
0.564706
0.56732
0.563399
0.56732
0.571242
0.571242
0.568627
0.564706
0.569935
0.56732
0.566013
0.566013
0.564706
0.563399
0.482353
0.372549
0.559477
0.562092
0.562092
0.546405
0.562092
0.465359
0.462745
0.556863
0.143791
0.236601
0.435294
0.564706
0.566013
0.560784
0.56732
0.560784
0.562092
0.566013
0.198693
0.556863
0.573856
0.568627
0.55817
0.56732
0.236601
0.563399
0.503268
0.56732
0.562092
0.572549
0.569935
0.479739
0.179085
0.563399
0.169935
0.562092
0.543791
0.401307
0.111111
0.398693
0.494118
0.517647
0.555556