# vtk DataFile Version 1.0
Unstructured Grid Example
ASCII

DATASET UNSTRUCTURED_GRID
POINTS 14460 float
16 228 0
58 102 0
39 236 0
173 335 0
78 355 0
260 356 0
76 374 0
382 308 0
475 403 0
307 279 0
376 201 0
467 176 0
326 146 0
263 135 0
30 24 0
14 194 0
41 96 0
67 207 0
87 4 0
184 229 0
164 245 0
158 315 0
127 246 0
137 275 0
124 343 0
125 333 0
48 346 0
114 388 0
92 401 0
157 438 0
147 467 0
145 447 0
154 343 0
153 336 0
178 328 0
256 220 0
287 215 0
218 349 0
195 394 0
261 505 0
486 437 0
432 513 0
337 418 0
295 266 0
473 226 0
485 194 0
507 159 0
431 197 0
299 203 0
218 171 0
271 138 0
220 86 0
369 101 0
427 145 0
434 122 0
475 65 0
13 32 0
0 27 0
6 105 0
12 120 0
3 135 0
47 38 0
21 43 0
40 36 0
16 14 0
32 9 0
48 25 0
67 28 0
110 34 0
148 1 0
189 18 0
203 53 0
204 100 0
183 113 0
126 107 0
65 102 0
114 70 0
98 136 0
92 172 0
134 140 0
138 153 0
161 157 0
162 180 0
174 195 0
136 174 0
124 197 0
106 184 0
69 166 0
57 172 0
52 166 0
67 156 0
74 146 0
39 149 0
35 146 0
25 166 0
50 180 0
38 194 0
45 188 0
43 255 0
43 277 0
58 257 0
67 299 0
84 245 0
97 350 0
121 317 0
67 330 0
66 361 0
32 315 0
32 362 0
34 392 0
30 403 0
2 507 0
17 490 0
91 496 0
111 503 0
64 433 0
72 395 0
88 382 0
52 371 0
157 360 0
137 364 0
123 407 0
154 513 0
143 507 0
203 413 0
170 508 0
194 386 0
180 347 0
187 338 0
184 320 0
186 298 0
170 254 0
169 285 0
148 330 0
141 251 0
124 223 0
150 252 0
154 239 0
188 248 0
156 200 0
253 271 0
246 268 0
280 289 0
282 219 0
290 274 0
266 316 0
283 293 0
264 297 0
255 322 0
255 307 0
213 365 0
229 330 0
207 382 0
232 412 0
207 513 0
266 458 0
253 466 0
281 501 0
251 351 0
236 349 0
279 324 0
320 397 0
385 469 0
311 471 0
428 478 0
446 513 0
459 510 0
465 505 0
479 498 0
468 448 0
492 479 0
392 322 0
508 313 0
382 395 0
358 311 0
300 312 0
329 263 0
292 249 0
339 295 0
383 223 0
398 242 0
471 222 0
508 207 0
483 208 0
488 156 0
474 148 0
508 146 0
456 163 0
452 168 0
452 171 0
453 196 0
460 213 0
391 214 0
447 214 0
377 212 0
260 218 0
235 217 0
274 133 0
219 135 0
324 211 0
429 148 0
433 142 0
451 183 0
361 87 0
367 89 0
357 81 0
348 91 0
273 85 0
315 13 0
275 79 0
245 7 0
348 1 0
364 15 0
388 20 0
395 83 0
396 1 0
457 94 0
390 97 0
415 99 0
496 117 0
509 129 0
484 99 0
512 80 0
481 62 0
461 73 0
0 8 0
11 5 0
20 5 0
27 14 0
26 9 0
29 15 0
29 39 0
25 25 0
3 68 0
12 74 0
16 80 0
0 97 0
18 102 0
19 107 0
7 112 0
28 111 0
20 115 0
29 107 0
26 106 0
25 85 0
22 106 0
31 74 0
33 57 0
32 92 0
30 104 0
31 118 0
45 100 0
48 103 0
42 74 0
51 74 0
48 74 0
51 47 0
50 43 0
44 39 0
30 45 0
42 48 0
50 30 0
36 37 0
49 9 0
50 14 0
52 8 0
53 14 0
58 19 0
54 11 0
58 52 0
59 72 0
58 74 0
70 64 0
65 61 0
62 41 0
68 21 0
60 6 0
91 6 0
92 17 0
100 15 0
174 10 0
186 11 0
163 56 0
165 69 0
183 23 0
151 25 0
73 32 0
71 70 0
109 87 0
148 98 0
165 77 0
186 78 0
194 84 0
174 101 0
183 104 0
128 119 0
117 108 0
96 115 0
74 101 0
66 119 0
72 79 0
85 77 0
66 76 0
61 90 0
54 87 0
62 78 0
55 96 0
53 109 0
54 113 0
66 127 0
81 145 0
66 151 0
71 151 0
74 163 0
110 179 0
90 168 0
93 166 0
89 153 0
81 159 0
140 144 0
172 161 0
185 165 0
187 162 0
192 145 0
171 178 0
178 181 0
164 167 0
155 178 0
148 173 0
127 180 0
161 188 0
160 182 0
168 189 0
182 195 0
195 183 0
165 217 0
185 196 0
158 225 0
151 210 0
141 204 0
132 218 0
101 225 0
133 214 0
121 202 0
130 185 0
86 196 0
67 193 0
92 183 0
78 209 0
68 213 0
91 228 0
61 226 0
62 215 0
46 225 0
39 216 0
37 218 0
46 170 0
49 177 0
50 168 0
64 185 0
60 212 0
62 162 0
52 153 0
54 152 0
65 149 0
47 148 0
45 126 0
38 120 0
34 131 0
36 134 0
33 139 0
45 139 0
20 143 0
28 161 0
27 133 0
29 126 0
20 123 0
4 158 0
18 122 0
8 132 0
0 165 0
6 172 0
1 179 0
2 193 0
2 198 0
23 195 0
28 187 0
33 201 0
11 207 0
26 206 0
6 221 0
3 214 0
0 203 0
2 202 0
3 243 0
25 240 0
18 244 0
16 261 0
20 302 0
26 278 0
57 326 0
44 271 0
39 256 0
54 233 0
58 235 0
67 261 0
74 262 0
74 238 0
101 241 0
98 324 0
115 313 0
117 282 0
68 313 0
64 327 0
63 315 0
81 344 0
70 342 0
83 341 0
90 328 0
98 328 0
118 371 0
110 351 0
93 374 0
73 357 0
64 355 0
43 361 0
56 355 0
43 354 0
55 350 0
62 342 0
38 342 0
0 331 0
35 356 0
24 366 0
43 370 0
15 373 0
19 386 0
0 383 0
28 383 0
42 385 0
52 375 0
43 388 0
24 400 0
21 412 0
7 413 0
7 426 0
9 487 0
5 484 0
0 490 0
4 492 0
5 500 0
14 491 0
43 504 0
26 476 0
42 475 0
14 464 0
49 446 0
73 445 0
87 437 0
86 462 0
79 463 0
68 470 0
97 484 0
117 505 0
105 513 0
99 445 0
107 433 0
89 424 0
113 409 0
103 393 0
68 392 0
57 410 0
62 404 0
83 385 0
70 385 0
61 377 0
95 383 0
108 382 0
113 377 0
139 366 0
127 356 0
145 371 0
152 351 0
159 367 0
159 388 0
148 385 0
136 373 0
127 372 0
131 376 0
120 400 0
120 389 0
124 449 0
124 473 0
125 486 0
136 490 0
153 504 0
156 433 0
139 431 0
152 425 0
138 419 0
171 403 0
167 402 0
174 412 0
161 418 0
177 428 0
182 507 0
185 501 0
185 391 0
194 383 0
196 379 0
183 375 0
188 373 0
177 376 0
172 378 0
170 377 0
176 353 0
173 369 0
168 355 0
179 372 0
180 353 0
191 361 0
187 344 0
195 339 0
191 332 0
178 303 0
179 308 0
167 320 0
173 300 0
169 330 0
167 346 0
178 346 0
156 342 0
157 345 0
155 340 0
149 350 0
121 350 0
137 337 0
128 314 0
159 318 0
162 334 0
163 327 0
162 331 0
153 276 0
153 294 0
150 279 0
130 275 0
144 267 0
136 241 0
133 258 0
137 238 0
149 262 0
150 243 0
168 256 0
174 271 0
176 253 0
175 275 0
172 282 0
174 291 0
187 283 0
190 285 0
179 277 0
189 269 0
180 265 0
197 257 0
204 239 0
228 206 0
230 252 0
239 266 0
199 267 0
247 242 0
255 253 0
246 218 0
244 215 0
258 202 0
287 206 0
287 226 0
289 198 0
290 207 0
299 198 0
294 235 0
303 270 0
293 274 0
284 232 0
279 265 0
272 271 0
281 284 0
270 282 0
284 285 0
296 275 0
302 284 0
290 290 0
302 318 0
276 300 0
273 289 0
270 290 0
254 330 0
261 330 0
263 310 0
265 292 0
267 287 0
240 294 0
246 284 0
203 295 0
200 304 0
246 319 0
246 315 0
205 333 0
210 338 0
213 345 0
223 350 0
238 335 0
228 360 0
235 355 0
220 351 0
218 355 0
206 362 0
214 371 0
219 376 0
203 397 0
204 420 0
216 513 0
227 414 0
232 420 0
234 393 0
236 387 0
222 376 0
233 363 0
255 355 0
246 362 0
255 362 0
244 480 0
238 478 0
298 489 0
305 479 0
274 412 0
301 383 0
258 369 0
270 346 0
264 345 0
263 354 0
244 347 0
241 346 0
252 340 0
249 341 0
252 343 0
256 343 0
286 335 0
303 342 0
319 297 0
315 270 0
340 284 0
368 280 0
391 297 0
436 336 0
357 319 0
355 314 0
327 297 0
333 318 0
308 349 0
339 344 0
314 363 0
306 397 0
334 443 0
409 485 0
347 490 0
403 486 0
436 479 0
401 454 0
339 356 0
463 474 0
454 469 0
494 501 0
497 502 0
438 504 0
502 505 0
499 513 0
512 489 0
499 489 0
512 478 0
495 429 0
501 460 0
480 431 0
478 453 0
475 448 0
460 336 0
441 417 0
487 372 0
493 424 0
493 300 0
496 380 0
429 263 0
445 252 0
478 248 0
512 245 0
451 231 0
421 243 0
422 234 0
429 245 0
373 247 0
425 259 0
367 260 0
326 259 0
325 249 0
321 262 0
306 257 0
326 244 0
313 246 0
315 235 0
332 239 0
367 227 0
370 235 0
381 225 0
400 219 0
352 222 0
323 219 0
310 223 0
366 212 0
310 218 0
337 197 0
369 215 0
384 195 0
400 208 0
424 200 0
422 204 0
435 206 0
435 212 0
422 225 0
492 219 0
457 219 0
450 216 0
488 209 0
471 197 0
467 196 0
484 188 0
506 188 0
480 192 0
459 187 0
458 189 0
465 178 0
461 183 0
470 184 0
472 186 0
504 175 0
487 173 0
480 164 0
476 147 0
488 147 0
494 142 0
461 149 0
450 142 0
462 136 0
450 165 0
475 175 0
452 175 0
430 154 0
434 169 0
417 146 0
411 145 0
431 143 0
410 149 0
393 141 0
403 150 0
389 155 0
397 167 0
421 171 0
390 178 0
427 180 0
435 173 0
443 179 0
436 187 0
449 193 0
447 190 0
431 191 0
415 187 0
407 189 0
328 193 0
326 189 0
325 184 0
323 177 0
382 182 0
312 173 0
280 171 0
297 178 0
290 179 0
313 193 0
262 184 0
264 191 0
258 190 0
242 186 0
211 180 0
221 174 0
198 178 0
244 176 0
247 173 0
263 178 0
252 179 0
282 168 0
276 159 0
259 155 0
240 153 0
203 152 0
259 151 0
197 146 0
262 150 0
265 138 0
271 141 0
281 149 0
310 146 0
286 135 0
333 146 0
300 156 0
285 171 0
352 152 0
355 152 0
345 148 0
362 143 0
343 142 0
386 139 0
402 134 0
379 134 0
387 127 0
386 111 0
391 103 0
342 104 0
315 102 0
372 106 0
376 125 0
316 135 0
306 125 0
312 132 0
275 129 0
273 124 0
261 126 0
283 119 0
276 124 0
204 113 0
285 102 0
312 93 0
312 104 0
242 74 0
286 69 0
241 86 0
233 57 0
222 76 0
232 29 0
201 44 0
247 50 0
286 27 0
290 36 0
318 41 0
321 15 0
312 65 0
310 78 0
300 86 0
376 88 0
365 93 0
362 67 0
403 47 0
389 38 0
333 1 0
422 34 0
413 1 0
431 9 0
442 51 0
442 8 0
443 70 0
446 55 0
431 71 0
425 110 0
413 104 0
422 112 0
417 111 0
409 120 0
427 122 0
419 123 0
449 132 0
456 135 0
435 129 0
443 119 0
437 117 0
452 114 0
472 110 0
486 72 0
480 128 0
461 133 0
463 134 0
512 121 0
498 122 0
487 94 0
512 84 0
494 78 0
504 70 0
504 27 0
512 48 0
502 63 0
491 58 0
456 39 0
495 8 0
475 15 0
500 4 0
503 4 0
503 10 0
503 18 0
2 1 0
0 5 0
2 10 0
2 23 0
0 24 0
4 29 0
3 25 0
6 7 0
5 5 0
3 7 0
14 9 0
8 8 0
15 11 0
16 5 0
18 18 0
12 28 0
14 19 0
14 22 0
9 21 0
7 27 0
7 23 0
9 42 0
13 36 0
14 34 0
15 37 0
15 42 0
17 55 0
20 50 0
17 45 0
15 50 0
12 52 0
6 43 0
8 58 0
7 41 0
5 32 0
9 29 0
2 35 0
2 32 0
3 38 0
0 40 0
2 45 0
2 41 0
4 81 0
0 87 0
6 83 0
7 100 0
9 84 0
9 106 0
10 115 0
5 108 0
5 101 0
0 104 0
4 121 0
5 123 0
0 127 0
4 128 0
0 133 0
8 135 0
6 137 0
5 133 0
10 128 0
8 126 0
7 118 0
13 115 0
13 101 0
14 121 0
12 131 0
11 137 0
18 137 0
18 125 0
18 117 0
14 106 0
21 112 0
20 95 0
21 83 0
19 89 0
14 94 0
12 93 0
15 69 0
15 60 0
15 83 0
18 78 0
19 64 0
20 73 0
21 60 0
21 69 0
23 71 0
31 59 0
28 69 0
33 82 0
32 99 0
30 97 0
28 95 0
25 73 0
25 116 0
28 101 0
23 123 0
28 124 0
24 132 0
33 129 0
30 133 0
29 116 0
30 114 0
30 100 0
31 102 0
33 123 0
35 118 0
36 125 0
36 129 0
37 136 0
45 136 0
43 137 0
40 127 0
42 122 0
42 110 0
44 81 0
45 107 0
44 102 0
43 85 0
40 93 0
38 63 0
36 73 0
34 60 0
39 77 0
42 77 0
45 58 0
46 49 0
43 52 0
44 43 0
42 37 0
45 37 0
39 41 0
41 40 0
38 43 0
35 48 0
41 50 0
31 56 0
33 52 0
27 55 0
26 50 0
26 53 0
25 45 0
24 47 0
21 40 0
29 47 0
30 42 0
32 40 0
26 32 0
27 26 0
25 30 0
24 33 0
22 32 0
23 26 0
22 3 0
24 10 0
26 12 0
28 5 0
28 17 0
33 7 0
34 3 0
30 18 0
34 20 0
30 30 0
41 22 0
43 30 0
[...]
CELL_DATA 28497
COLOR_SCALARS ColorSpace 1
0.105882
0.244444
0.169935
0.539869
0.564706
0.552941
0.44183
0.543791
0.539869
0.547712
0.550327
0.0732026
0.535948
0.0823529
0.546405
0.555556
0.54902
0.56732
0.0732026
0.0732026
0.0928105
0.559477
0.0718954
0.562092
0.55817
0.197386
0.526797
0.556863
0.308497
0.0823529
0.550327
0.556863
0.471895
0.517647
0.552941
0.128105
0.52549
0.296732
0.54902
0.546405
0.54902
0.484967
0.54902
0.227451
0.546405
0.550327
0.546405
0.547712
0.551634
0.546405
0.546405
0.537255
0.464052
0.413072
0.546405
0.542484
0.545098
0.541176
0.539869
0.543791
0.54902
0.495425
0.39085
0.24183
0.147712
0.0718954
0.0718954
0.0705882
0.0732026
0.0771242
0.112418
0.551634
0.469281
0.542484
0.535948
0.54902
0.539869
0.538562
0.547712
0.121569
0.0745098
0.552941
0.103268
0.551634
0.550327
0.54902
0.515033
0.104575
0.550327
0.0745098
0.075817
0.560784
0.563399
0.0745098
0.0732026
0.569935
0.562092
0.0993464
0.330719
0.12549
0.356863
0.571242
0.245752
0.575163
0.269281
0.100654
0.50719
0.282353
0.500654
0.554248
0.345098
0.27451
0.0875817
0.379085
0.120261
0.0928105
0.447059
0.350327
0.155556
0.308497
0.154248
0.433987
0.326797
0.554248
0.555556
0.564706
0.0941176
0.562092
0.568627
0.569935
0.554248
0.568627
0.566013
0.563399
0.564706
0.559477
0.564706
0.562092
0.54902
0.562092
0.554248
0.555556
0.0875817
0.559477
0.559477
0.562092
0.559477
0.0862745
0.563399
0.551634
0.563399
0.555556
0.556863
0.369935
0.564706
0.554248
0.120261
0.0718954
0.0797386
0.55817
0.0745098
0.55817
0.398693
0.556863
0.552941
0.427451
0.0836601
0.096732
0.103268
0.0941176
0.0875817
0.211765
0.0993464
0.452288
0.560784
0.445752
0.0797386
0.135948
0.134641
0.096732
0.186928
0.445752
0.0875817
0.555556
0.0810458
0.501961
0.179085
0.545098
0.551634
0.551634
0.546405
0.552941
0.547712
0.54902
0.547712
0.555556
0.556863
0.547712
0.545098
0.551634
0.547712
0.54902
0.542484
0.546405
0.546405
0.547712
0.545098
0.0771242
0.541176
0.542484
0.51634
0.0901961
0.538562
0.54902
0.539869
0.538562
0.538562
0.538562
0.535948
0.535948
0.539869
0.547712
0.101961
0.542484
0.305882
0.0810458
0.539869
0.529412
0.546405
0.128105
0.54902
0.456209
0.317647
0.539869
0.543791
0.542484
0.541176
0.543791
0.538562
0.541176
0.197386
0.528105
0.126797
0.359477
0.162092
0.108497
0.0732026
0.0745098
0.137255
0.15817
0.372549
0.54902
0.550327
0.0745098
0.547712
0.546405
0.546405
0.552941
0.552941
0.0732026
0.551634
0.352941
0.0745098
0.0745098
0.0718954
0.554248
0.0732026
0.556863
0.0745098
0.550327
0.0718954
0.0745098
0.552941
0.0745098
0.0718954
0.0732026
0.546405
0.0888889
0.347712
0.326797
0.54902
0.547712
0.0732026
0.0745098
0.546405
0.0745098
0.444444
0.0745098
0.295425
0.156863
0.0745098
0.184314
0.164706
0.541176
0.542484
0.539869
0.537255
0.535948
0.537255
0.541176
0.538562
0.541176
0.54902
0.471895
0.495425
0.539869
0.537255
0.552941
0.542484
0.547712
0.537255
0.541176
0.542484
0.542484
0.541176
0.530719
0.530719
0.530719
0.532026
0.530719
0.539869
0.533333
0.534641
0.535948
0.541176
0.529412
0.537255
0.541176
0.542484
0.538562
0.560784
0.538562
0.541176
0.54902
0.0732026
0.550327
0.547712
0.547712
0.0705882
0.0745098
0.542484
0.547712
0.547712
0.555556
0.552941
0.555556
0.545098
0.554248
0.550327
0.545098
0.555556
0.556863
0.54902
0.554248
0.254902
0.267974
0.115033
0.559477
0.55817
0.515033
0.197386
0.100654
0.193464
0.124183
0.54902
0.554248
0.551634
0.556863
0.550327
0.288889
0.075817
0.554248
0.551634
0.551634
0.0745098
0.0718954
0.0718954
0.0705882
0.0745098
0.566013
0.569935
0.560784
0.563399
0.550327
0.0718954
0.256209
0.113725
0.562092
0.491503
0.145098
0.371242
0.56732
0.0888889
0.566013
0.568627
0.566013
0.566013
0.571242
0.568627
0.559477
0.56732
0.56732
0.563399
0.566013
0.571242
0.56732
0.571242
0.564706
0.572549
0.568627
0.562092
0.56732
0.573856
0.564706
0.560784
0.563399
0.294118
0.103268
0.572549
0.286275
0.560784
0.559477
0.564706
0.569935
0.571242
0.572549
0.566013
0.568627
0.568627
0.559477
0.537255
0.566013
0.564706
0.563399
0.55817
0.423529
0.50719
0.55817
0.556863
0.559477
0.179085
0.0849673
0.194771
0.194771
0.0915033
0.12549
0.0810458
0.444444
0.141176
0.0836601
0.0928105
0.10719
0.132026
0.471895
0.10719
0.101961
0.10719
0.130719
0.155556
0.11634
0.304575
0.222222
0.308497
0.210458
0.0862745
0.0823529
0.0888889
0.104575
0.0823529
0.0928105
0.0797386
0.0836601
0.24183
0.237908
0.145098
0.43268
0.0862745
0.176471
0.486275
0.410458
0.546405
0.0928105
0.513725
0.0784314
0.431373
0.559477
0.111111
0.235294
0.0954248
0.55817
0.562092
0.560784
0.124183
0.546405
0.273203
0.0797386
0.447059
0.545098
0.104575
0.556863
0.133333
0.0862745
0.560784
0.356863
0.128105
0.563399
0.562092
0.44183
0.562092
0.560784
0.518954
0.566013
0.562092
0.559477
0.556863
0.15817
0.150327
0.559477
0.559477
0.248366
0.218301
0.556863
0.381699
0.547712
0.457516
0.560784
0.559477
0.562092
0.562092
0.560784
0.563399
0.560784
0.562092
0.566013
0.564706
0.564706
0.568627
0.569935
0.571242
0.569935
0.560784
0.566013
0.563399
0.564706
0.566013
0.568627
0.56732
0.568627
0.562092
0.563399
0.559477
0.55817
0.550327
0.562092
0.556863
0.564706
0.563399
0.566013
0.564706
0.563399
0.568627
0.564706
0.564706
0.563399
0.566013
0.559477
0.55817
0.559477
0.562092
0.556863
0.55817
0.556863
0.54902
0.559477
0.560784
0.55817
0.559477
0.55817
0.564706
0.55817
0.550327
0.559477
0.422222
0.407843
0.261438
0.535948
0.55817
0.156863
0.554248
0.210458
0.543791
0.179085
0.555556
0.159477
0.203922
0.55817
0.555556
0.556863
0.134641
0.414379
0.55817
0.54902
0.552941
0.550327
0.560784
0.556863
0.551634
0.555556
0.559477
0.55817
0.556863
0.554248
0.55817
0.52549
0.559477
0.560784
0.560784
0.556863
0.145098
0.0810458
0.555556
0.555556
0.566013
0.559477
0.0888889
0.0771242
0.556863
0.0784314
0.555556
0.556863
0.342484
0.0823529
0.556863
0.526797
0.555556
0.0888889
0.0810458
0.0849673
0.112418
0.0797386
0.0849673
0.0745098
0.141176
0.0732026
0.141176
0.198693
0.0745098
0.0745098
0.0718954
0.0732026
0.214379
0.0745098
0.329412
0.294118
0.0784314
0.554248
0.0745098
0.55817
0.555556
0.552941
0.0823529
0.54902
0.552941
0.556863
0.556863
0.458824
0.552941
0.0862745
0.487582
0.518954
0.556863
0.556863
0.550327
0.547712
0.457516
0.517647
0.554248
0.54902
0.555556
0.309804
0.550327
0.504575
0.413072
0.478431
0.233987
0.273203
0.247059
0.47451
0.0862745
0.124183
0.0888889
0.168627
0.188235
0.207843
0.447059
0.194771
0.550327
0.51634
0.096732
0.113725
0.0797386
0.0836601
0.440523
0.0901961
0.203922
0.0875817
0.138562
0.0901961
0.0849673
0.55817
0.0915033
0.100654
0.235294
0.288889
0.156863
0.096732
0.171242
0.151634
0.0875817
0.389542
0.355556
0.096732
0.0849673
0.0928105
0.169935
0.439216
0.213072
0.226144
0.105882
0.100654
0.419608
0.162092
0.096732
0.0954248
0.226144
0.183007
0.0993464
0.124183
0.100654
0.547712
0.518954
0.24183
0.0941176
0.264052
0.518954
0.233987
0.252288
0.543791
0.376471
0.352941
0.541176
0.303268
0.552941
0.231373
0.458824
0.542484
0.240523
0.175163
0.100654
0.269281
0.550327
0.545098
0.550327
0.550327
0.550327
0.547712
0.546405
0.547712
0.543791
0.546405
0.547712
0.551634
0.550327
0.547712
0.546405
0.545098
0.546405
0.551634
0.552941
0.220915
0.54902
0.54902
0.547712
0.546405
0.54902
0.547712
0.552941
0.411765
0.543791
0.552941
0.551634
0.54902
0.54902
0.552941
0.550327
0.54902
0.54902
0.542484
0.551634
0.550327
0.545098
0.545098
0.550327
0.539869
0.547712
0.545098
0.54902
0.545098
0.551634
0.546405
0.54902
0.547712
0.329412
0.0862745
0.545098
0.368627
0.152941
0.543791
0.546405
0.542484
0.546405
0.546405
0.368627
0.545098
0.547712
0.543791
0.415686
0.545098
0.542484
0.543791
0.547712
0.546405
0.546405
0.547712
0.526797
0.448366
0.537255
0.546405
0.45098
0.075817
0.539869
0.539869
0.546405
0.542484
0.545098
0.542484
0.541176
0.0771242
0.0784314
0.541176
0.50719
0.545098
0.538562
0.541176
0.539869
0.537255
0.547712
0.539869
0.534641
0.535948
0.533333
0.538562
0.537255
0.538562
0.534641
0.537255
0.538562
0.535948
0.534641
0.538562
0.538562
0.541176
0.537255
0.545098
0.538562
0.542484
0.538562
0.539869
0.535948
0.539869
0.542484
0.543791
0.539869
0.541176
0.541176
0.539869
0.538562
0.534641
0.543791
0.538562
0.539869
0.538562
0.539869
0.537255
0.539869
0.541176
0.545098
0.543791
0.543791
0.542484
0.541176
0.538562
0.118954
0.173856
0.0901961
0.108497
0.541176
0.543791
0.541176
0.543791
0.294118
0.197386
0.240523
0.108497
0.542484
0.075817
0.0915033
0.543791
0.0888889
0.143791
0.0993464
0.415686
0.517647
0.0901961
0.535948
0.504575
0.303268
0.550327
0.264052
0.403922
0.445752
0.541176
0.326797
0.542484
0.193464
0.543791
0.405229
0.490196
0.0888889
0.547712
0.150327
0.224837
0.184314
0.184314
0.0954248
0.130719
0.539869
0.534641
0.543791
0.538562
0.541176
0.538562
0.541176
0.537255
0.535948
0.535948
0.542484
0.54902
0.538562
0.542484
0.543791
0.542484
0.542484
0.226144
0.543791
0.528105
0.521569
0.550327
0.547712
0.541176
0.542484
0.534641
0.538562
0.538562
0.538562
0.535948
0.541176
0.541176
0.546405
0.288889
0.248366
0.334641
0.410458
0.418301
0.546405
0.437908
0.445752
0.4
0.405229
0.312418
0.538562
0.518954
0.481046
0.388235
0.223529
0.45098
0.124183
0.320261
0.416993
0.223529
0.449673
0.530719
0.096732
0.16732
0.405229
0.355556
0.108497
0.0901961
0.075817
0.130719
0.0875817
0.075817
0.0745098
0.0862745
0.0745098
0.133333
0.0771242
0.401307
0.0862745
0.075817
0.384314
0.141176
0.448366
0.227451
0.0980392
0.0810458
0.295425
0.11634
0.359477
0.128105
0.237908
0.219608
0.545098
0.437908
0.546405
0.547712
0.543791
0.473203
0.554248
0.550327
0.0954248
0.143791
0.39085
0.547712
0.542484
0.29281
0.517647
0.456209
0.554248
0.0928105
0.550327
0.546405
0.551634
0.54902
0.554248
0.54902
0.550327
0.552941
0.555556
0.554248
0.551634
0.552941
0.560784
0.554248
0.551634
0.54902
0.452288
0.554248
0.555556
0.0993464
0.264052
0.152941
0.518954
0.0745098
0.231373
0.534641
0.139869
0.0823529
0.354248
0.0745098
0.0797386
0.258824
0.146405
0.0745098
0.0980392
0.156863
0.118954
0.0718954
0.143791
0.35817
0.146405
0.0732026
0.0745098
0.0745098
0.55817
0.0745098
0.0732026
0.0745098
0.0745098
0.0718954
0.0745098
0.270588
0.0718954
0.0745098
0.0718954
0.547712
0.0705882
0.0745098
0.0732026
0.560784
0.0705882
0.0745098
0.0732026
0.0732026
0.0745098
0.0745098
0.0718954
0.0797386
0.0718954
0.0745098
0.0745098
0.0745098
0.117647
0.0732026
0.326797
0.550327
0.552941
0.547712
0.0732026
0.129412
0.138562
0.0705882
0.300654
0.0745098
0.202614
0.547712
0.449673
0.0745098
0.54902
0.547712
0.24183
0.54902
0.547712
0.069281
0.550327
0.550327
0.54902
0.546405
0.4
0.551634
0.355556
0.075817
0.471895
0.0771242
0.543791
0.545098
0.545098
0.538562
0.364706
0.069281
0.0732026
0.075817
0.129412
0.0732026
0.0745098
0.0718954
0.0745098
0.0745098
0.0745098
0.0745098
0.075817
0.0745098
0.0784314
0.477124
0.075817
0.0745098
0.0784314
0.103268
0.0745098
0.0771242
0.10719
0.0797386
0.104575
0.0797386
0.0836601
0.0771242
0.543791
0.538562
0.202614
0.545098
0.266667
0.313725
0.264052
0.118954
0.164706
0.328105
0.12549
0.457516
0.542484
0.543791
0.542484
0.542484
0.542484
0.543791
0.542484
0.541176
0.543791
0.538562
0.539869
0.542484
0.538562
0.54902
0.546405
0.338562
0.330719
0.481046
0.547712
0.530719
0.543791
0.426144
0.545098
0.547712
0.545098
0.538562
0.541176
0.542484
0.532026
0.541176
0.535948
0.539869
0.542484
0.538562
0.539869
0.545098
0.546405
0.543791
0.542484
0.550327
0.546405
0.546405
0.547712
0.542484
0.54902
0.398693
0.537255
0.322876
0.551634
0.54902
0.163399
0.512418
0.334641
0.547712
0.546405
0.545098
0.54902
0.54902
0.543791
0.545098
0.542484
0.54902
0.403922
0.551634
0.0745098
0.552941
0.54902
0.551634
0.546405
0.550327
0.546405
0.546405
0.537255
0.54902
0.542484
0.54902
0.546405
0.547712
0.545098
0.550327
0.541176
0.543791
0.54902
0.550327
0.550327
0.546405
0.542484
0.542484
0.545098
0.537255
0.545098
0.535948
0.539869
0.534641
0.537255
0.534641
0.533333
0.533333
0.537255
0.537255
0.537255
0.542484
0.545098
0.538562
0.534641
0.535948
0.532026
0.534641
0.534641
0.532026
0.534641
0.535948
0.537255
0.537255
0.532026
0.528105
0.533333
0.534641
0.533333
0.533333
0.534641
0.535948
0.532026
0.538562
0.535948
0.537255
0.532026
0.532026
0.534641
0.532026
0.546405
0.541176
0.533333
0.535948
0.539869
0.541176
0.535948
0.535948
0.550327
0.54902
0.535948
0.535948
0.552941
0.552941
0.54902
0.546405
0.554248
0.554248
0.550327
0.551634
0.546405
0.552941
0.551634
0.552941
0.556863
0.550327
0.551634
0.552941
0.552941
0.546405
0.550327
0.555556
0.54902
0.551634
0.431373
0.554248
0.0954248
0.334641
0.552941
0.0718954
0.0732026
0.551634
0.551634
0.253595
0.54902
0.0732026
0.206536
0.183007
0.551634
0.552941
0.113725
0.555556
0.551634
0.28366
0.556863
0.559477
0.554248
0.296732
0.0745098
0.0745098
0.0718954
0.0705882
0.0745098
0.0745098
0.0732026
0.0718954
0.0705882
0.0718954
0.0745098
0.0771242
0.0784314
0.0718954
0.118954
0.185621
0.105882
0.0745098
0.0732026
0.520261
0.554248
0.552941
0.288889
0.555556
0.545098
0.551634
0.551634
0.552941
0.555556
0.554248
0.554248
0.551634
0.555556
0.555556
0.550327
0.552941
0.552941
0.290196
0.555556
0.556863
0.556863
0.556863
0.552941
0.554248
0.551634
0.304575
0.330719
0.547712
0.491503
0.216993
0.138562
0.183007
0.0941176
0.224837
0.393464
0.551634
0.333333
0.556863
0.554248
0.559477
0.556863
0.538562
0.543791
0.562092
0.44183
0.55817
0.556863
0.559477
0.554248
0.402614
0.244444
0.118954
0.15817
0.508497
0.563399
0.0954248
0.35817
0.55817
0.487582
0.222222
0.0784314
0.129412
0.0875817
0.0784314
0.290196
0.560784
0.11634
0.0980392
0.563399
0.207843
0.405229
0.0862745
0.0954248
0.0941176
0.0941176
0.101961
0.133333
0.0823529
0.0732026
0.075817
0.0836601
0.0797386
0.0732026
0.075817
0.0732026
0.108497
0.247059
0.28366
0.210458
0.141176
0.554248
0.100654
0.171242
0.532026
0.513725
0.554248
0.115033
0.0745098
0.0954248
0.177778
0.0875817
0.075817
0.121569
0.0718954
0.0718954
0.0718954
0.0745098
0.0771242
0.0745098
0.0732026
0.0718954
0.0732026
0.0745098
0.0823529
0.0732026
0.0745098
0.563399
0.0732026
0.0705882
0.0745098
0.0732026
0.0718954
0.0732026
0.0941176
0.556863
0.132026
0.0797386
0.0718954
0.556863
0.0718954
0.556863
0.55817
0.10719
0.559477
0.0705882
0.55817
0.566013
0.562092
0.554248
0.192157
0.168627
0.104575
0.0745098
0.551634
0.560784
0.0732026
0.0823529
0.562092
0.0732026
0.560784
0.566013
0.55817
0.569935
0.563399
0.556863
0.560784
0.556863
0.564706
0.556863
0.0941176
0.560784
0.563399
0.560784
0.162092
0.562092
0.0745098
0.0941176
0.0745098
0.55817
0.56732
0.0797386
0.0836601
0.0797386
0.0732026
0.0745098
0.0745098
0.0745098
0.096732
0.0732026
0.0732026
0.101961
0.0875817
0.0928105
0.0928105
0.0915033
0.0862745
0.56732
0.0941176
0.552941
0.137255
0.096732
0.096732
0.564706
0.104575
0.560784
0.298039
0.566013
0.566013
0.564706
0.566013
0.566013
0.356863
0.566013
0.339869
0.0862745
0.43268
0.108497
0.0810458
0.16732
0.562092
0.0849673
0.569935
0.0810458
0.560784
0.563399
0.56732
0.563399
0.560784
0.562092
0.560784
0.563399
0.564706
0.566013
0.564706
0.560784
0.566013
0.566013
0.564706
0.569935
0.564706
0.563399
0.568627
0.566013
0.563399
0.572549
0.562092
0.562092
0.563399
0.572549
0.56732
0.568627
0.566013
0.569935
0.564706
0.562092
0.563399
0.571242
0.569935
0.568627
0.568627
0.564706
0.573856
0.566013
0.56732
0.568627
0.566013
0.568627
0.566013
0.56732
0.566013
0.568627
0.568627
0.568627
0.563399
0.56732
0.56732
0.564706
0.564706
0.56732
0.56732
0.571242
0.573856
0.562092
0.562092
0.568627
0.569935
0.56732
0.575163
0.564706
0.569935
0.569935
0.568627
0.566013
0.566013
0.496732
0.566013
0.563399
0.512418
0.482353
0.560784
0.543791
0.564706
0.543791
0.457516
0.376471
0.137255
0.223529
0.322876
0.118954
0.564706
0.101961
0.562092
0.423529
0.332026
0.534641
0.569935
0.55817
0.564706
0.243137
0.555556
0.563399
0.56732
0.563399
0.563399
0.526797
0.563399
0.461438
0.563399
0.551634
0.418301
0.54902
0.56732
0.562092
0.564706
0.562092
0.568627
0.566013
0.563399
0.571242
0.569935
0.566013
0.572549
0.564706
0.571242
0.571242
0.568627
0.564706
0.573856
0.576471
0.566013
0.572549
0.56732
0.566013
0.568627
0.56732
0.564706
0.568627
0.571242
0.56732
0.54902
0.393464
0.52549
0.0888889
0.462745
0.355556
0.267974
0.0901961
0.0915033
0.34902
0.526797
0.559477
0.418301
0.555556
0.4
0.471895
0.12549
0.566013
0.135948
0.543791
0.205229
0.560784
0.562092
0.562092
0.478431
0.228758
0.243137
0.4
0.0810458
0.346405
0.355556
0.320261
0.465359
0.271895
0.154248
0.360784
0.385621
0.105882
0.121569
0.0915033
0.491503
0.0954248
0.134641
0.533333
0.407843
0.555556
0.51634
0.511111
0.0849673
0.0862745
0.471895
0.128105
0.484967
0.256209
0.294118
0.0823529
0.108497
0.108497
0.10719
0.0928105
0.0810458
0.115033
0.0941176
0.103268
0.265359
0.0980392
0.420915
0.448366
0.0888889
0.121569
0.0941176
0.0862745
0.101961
0.0993464
0.142484
0.115033
0.133333
0.10719
0.14902
0.14902
0.121569
0.103268
0.49281
0.10719
0.0875817
0.0993464
0.27451
0.332026
0.176471
0.096732
0.29281
0.23268
0.418301
0.186928
0.342484
0.169935
0.31634
0.290196
0.16732
0.146405
0.366013
0.381699
0.330719
0.12549
0.324183
0.406536
0.230065
0.364706
0.0901961
0.163399
0.111111
0.0901961
0.230065
0.0928105
0.0993464
0.0941176
0.0875817
0.0888889
0.0954248
0.0901961
0.216993
0.111111
0.186928
0.313725
0.176471
0.104575
0.113725
0.0980392
0.0941176
0.126797
0.0980392
0.337255
0.176471
0.0928105
0.0875817
0.175163
0.0823529
0.096732
0.0771242
0.0901961
0.139869
0.0810458
0.100654
0.0928105
0.0836601
0.0836601
0.0810458
0.0862745
0.0888889
0.0915033
0.0784314
0.0836601
0.0862745
0.219608
0.0784314
0.0901961
0.0915033
0.45098
0.0771242
0.0915033
0.0784314
0.0849673
0.0993464
0.54902
0.0888889
0.0915033
0.103268
0.0810458
0.466667
0.47451
0.146405
0.143791
0.103268
0.105882
0.0810458
0.0849673
0.132026
0.231373
0.266667
0.12549
0.159477
0.0823529
0.147712
0.193464
0.0915033
0.101961
0.252288
0.398693
0.159477
0.453595
0.184314
0.188235
0.159477
0.252288
0.105882
0.105882
0.418301
0.223529
0.117647
0.100654
0.143791
0.258824
0.0915033
0.0823529
0.230065
0.324183
0.120261
0.486275
0.0771242
0.105882
0.0849673
0.231373
0.0875817
0.0941176
0.151634
0.101961
0.180392
0.15817
0.0915033
0.322876
0.394771
0.464052
0.362092
0.470588
0.0915033
0.134641
0.126797
0.156863
0.0810458
0.0875817
0.0836601
0.115033
0.0797386
0.0980392
0.117647
0.0901961
0.0849673
0.0901961
0.0980392
0.15817
0.139869
0.413072
0.407843
0.139869
0.256209
0.541176
0.163399
0.235294
0.0888889
0.222222
0.0810458
0.0862745
0.155556
0.223529
0.281046
0.25098
0.363399
0.299346
0.328105
0.427451
0.287582
0.104575
0.154248
0.260131
0.0836601
0.154248
0.559477
0.333333
0.44183
0.0836601
0.554248
0.180392
0.55817
0.511111
0.194771
0.518954
0.559477
0.528105
0.440523
0.500654
0.112418
0.398693
0.0980392
0.449673
0.296732
0.351634
0.352941
0.216993
0.134641
0.518954
0.481046
0.168627
0.201307
0.126797
0.546405
0.560784
0.546405
0.559477
0.486275
0.55817
0.55817
0.55817
0.359477
0.249673
0.556863
0.559477
0.564706
0.56732
0.559477
0.448366
0.109804
0.381699
0.309804
0.104575
0.0928105
0.559477
0.104575
0.0888889
0.0928105
0.0862745
0.159477
0.559477
0.545098
0.55817
0.556863
0.560784
0.563399
0.559477
0.313725
0.55817
0.55817
0.563399
0.560784
0.559477
0.394771
0.552941
0.559477
0.39085
0.556863
0.547712
0.249673
0.562092
0.0862745
0.210458
0.0901961
0.278431
0.12549
0.0797386
0.12549
0.115033
0.0888889
0.556863
0.552941
0.560784
0.52549
0.311111
0.532026
0.287582
0.108497
0.0915033
0.537255
0.36732
0.560784
0.559477
0.528105
0.562092
0.477124
0.551634
0.457516
0.343791
0.541176
0.562092
0.559477
0.392157
0.559477
0.556863
0.563399
0.556863
0.562092
0.564706
0.55817
0.458824
0.563399
0.560784
0.562092
0.566013
0.562092
0.560784
0.551634
0.559477
0.559477
0.564706
0.556863
0.556863
0.559477
0.559477
0.559477
0.559477
0.564706
0.564706
0.562092
0.560784
0.56732
0.559477
0.568627
0.566013
0.562092
0.56732
0.564706
0.559477
0.564706
0.559477
0.562092
0.560784
0.562092
0.559477
0.564706
0.564706
0.56732
0.564706
0.560784
0.564706
0.562092
0.564706
0.563399
0.564706
0.564706
0.571242
0.568627
0.566013
0.568627
0.568627
0.569935
0.569935
0.572549
0.566013
0.568627
0.569935
0.56732
0.568627
0.569935
0.56732
0.56732