# vtk DataFile Version 1.0
Unstructured Grid Example
ASCII

DATASET UNSTRUCTURED_GRID
POINTS 8604 float
229 47 0
218 268 0
116 353 0
32 477 0
242 310 0
354 180 0
328 125 0
310 109 0
15 135 0
132 186 0
134 152 0
159 205 0
124 212 0
8 232 0
49 234 0
39 344 0
5 385 0
105 398 0
165 342 0
67 232 0
178 255 0
184 269 0
242 367 0
444 492 0
500 423 0
335 246 0
479 177 0
347 246 0
170 226 0
419 126 0
243 56 0
491 147 0
512 146 0
11 1 0
7 132 0
34 136 0
45 84 0
38 24 0
66 24 0
85 21 0
150 8 0
160 10 0
78 72 0
71 88 0
70 105 0
65 137 0
70 172 0
160 164 0
135 175 0
107 178 0
77 192 0
46 209 0
62 189 0
35 141 0
23 152 0
31 165 0
0 172 0
4 196 0
43 300 0
67 235 0
82 344 0
77 354 0
69 375 0
18 351 0
10 432 0
55 476 0
5 509 0
103 501 0
60 453 0
76 397 0
122 408 0
140 409 0
114 465 0
146 485 0
154 389 0
154 386 0
148 379 0
142 380 0
136 335 0
130 287 0
128 223 0
146 326 0
148 258 0
194 251 0
226 255 0
247 219 0
219 283 0
195 280 0
162 302 0
189 343 0
205 376 0
203 513 0
234 398 0
230 388 0
227 373 0
260 238 0
303 292 0
273 314 0
305 513 0
502 510 0
416 233 0
414 229 0
411 220 0
346 219 0
251 214 0
264 208 0
488 213 0
495 198 0
505 186 0
484 157 0
491 121 0
465 159 0
470 168 0
445 197 0
424 189 0
243 194 0
161 197 0
208 171 0
413 118 0
421 116 0
440 139 0
299 109 0
296 100 0
286 110 0
249 32 0
285 75 0
328 80 0
385 74 0
347 91 0
328 111 0
412 108 0
445 103 0
447 97 0
457 83 0
2 27 0
11 33 0
20 26 0
23 69 0
21 45 0
2 38 0
0 75 0
4 90 0
4 112 0
20 108 0
6 107 0
9 69 0
25 36 0
32 48 0
37 108 0
40 107 0
44 107 0
44 46 0
45 34 0
30 29 0
25 32 0
23 4 0
26 25 0
33 21 0
35 11 0
46 20 0
51 33 0
48 61 0
51 44 0
70 43 0
52 1 0
89 14 0
94 1 0
123 6 0
105 43 0
97 41 0
93 55 0
79 77 0
134 96 0
165 67 0
89 108 0
79 108 0
66 105 0
57 105 0
57 86 0
61 85 0
56 94 0
51 95 0
53 100 0
50 103 0
61 114 0
58 122 0
57 134 0
76 159 0
62 142 0
73 119 0
111 120 0
144 130 0
178 121 0
89 160 0
86 152 0
81 133 0
107 164 0
134 180 0
169 172 0
138 203 0
121 187 0
114 182 0
80 194 0
89 170 0
79 160 0
63 186 0
69 198 0
67 201 0
61 205 0
55 190 0
48 193 0
30 195 0
30 184 0
33 171 0
57 187 0
51 166 0
56 158 0
39 137 0
30 132 0
37 143 0
29 155 0
19 191 0
10 189 0
12 184 0
6 122 0
6 142 0
5 176 0
10 195 0
13 195 0
18 196 0
29 198 0
21 209 0
15 204 0
3 203 0
22 212 0
0 214 0
10 236 0
26 229 0
35 220 0
30 212 0
37 226 0
64 226 0
115 217 0
77 230 0
45 247 0
38 248 0
68 283 0
85 248 0
102 279 0
89 327 0
79 340 0
74 346 0
56 326 0
51 295 0
53 254 0
5 261 0
8 251 0
9 325 0
44 336 0
13 373 0
19 394 0
23 367 0
21 410 0
0 421 0
0 427 0
0 460 0
0 494 0
3 504 0
4 480 0
14 445 0
17 431 0
64 399 0
69 479 0
69 488 0
96 486 0
97 405 0
102 399 0
97 383 0
94 377 0
66 391 0
63 354 0
47 355 0
75 364 0
106 368 0
129 346 0
146 331 0
151 332 0
159 362 0
146 377 0
134 368 0
124 378 0
122 433 0
126 497 0
145 407 0
145 400 0
150 385 0
165 366 0
165 371 0
171 427 0
178 368 0
174 362 0
177 361 0
174 345 0
170 350 0
169 345 0
160 339 0
163 341 0
176 319 0
177 332 0
173 286 0
171 280 0
177 279 0
166 260 0
170 268 0
168 305 0
159 313 0
156 301 0
147 308 0
149 263 0
126 274 0
158 268 0
160 281 0
144 239 0
139 234 0
132 237 0
130 221 0
136 228 0
156 232 0
165 237 0
167 257 0
158 258 0
176 250 0
175 259 0
175 217 0
173 211 0
204 252 0
202 270 0
196 272 0
210 276 0
232 255 0
233 224 0
235 230 0
253 223 0
275 240 0
267 270 0
264 252 0
260 265 0
236 318 0
257 311 0
272 281 0
262 320 0
260 324 0
257 331 0
214 316 0
231 310 0
205 299 0
196 286 0
178 302 0
191 307 0
184 311 0
180 342 0
196 355 0
217 356 0
210 358 0
190 373 0
180 367 0
184 389 0
179 396 0
181 491 0
199 401 0
194 393 0
186 377 0
238 372 0
258 372 0
221 401 0
276 513 0
273 497 0
275 390 0
265 362 0
251 366 0
247 367 0
234 360 0
250 355 0
267 337 0
272 334 0
308 307 0
312 304 0
346 303 0
329 317 0
324 325 0
317 312 0
292 379 0
308 411 0
321 513 0
357 513 0
366 477 0
365 419 0
495 493 0
495 499 0
457 503 0
506 508 0
507 505 0
512 458 0
503 412 0
489 402 0
484 455 0
501 358 0
366 317 0
503 307 0
512 363 0
468 293 0
368 293 0
506 267 0
302 275 0
334 282 0
315 298 0
295 297 0
290 278 0
283 302 0
284 272 0
283 265 0
285 276 0
290 267 0
303 260 0
297 259 0
281 250 0
284 219 0
292 245 0
320 240 0
353 225 0
377 228 0
325 258 0
385 259 0
477 239 0
434 229 0
413 225 0
491 201 0
467 218 0
466 196 0
468 184 0
512 184 0
512 180 0
476 164 0
483 162 0
476 157 0
473 167 0
466 170 0
469 173 0
454 174 0
450 158 0
443 156 0
428 154 0
425 154 0
418 168 0
423 186 0
434 191 0
448 179 0
439 215 0
429 195 0
428 211 0
414 218 0
400 216 0
385 211 0
397 202 0
381 202 0
320 203 0
298 213 0
292 211 0
282 209 0
213 200 0
241 190 0
266 190 0
275 192 0
261 169 0
259 186 0
248 186 0
186 164 0
229 156 0
258 153 0
272 159 0
311 163 0
267 168 0
341 173 0
361 181 0
395 163 0
315 158 0
385 145 0
350 127 0
373 110 0
319 118 0
328 119 0
323 134 0
288 144 0
287 147 0
262 152 0
287 131 0
296 141 0
299 133 0
295 106 0
275 108 0
182 101 0
234 21 0
240 41 0
261 63 0
318 80 0
341 108 0
318 110 0
359 109 0
352 105 0
373 88 0
385 26 0
394 107 0
396 9 0
454 28 0
446 114 0
415 114 0
409 117 0
392 119 0
426 122 0
428 128 0
429 144 0
442 141 0
448 126 0
436 119 0
456 138 0
462 146 0
465 150 0
506 150 0
474 149 0
492 100 0
499 50 0
482 52 0
466 47 0
484 13 0
456 1 0
487 19 0
509 11 0
1 17 0
3 18 0
3 24 0
8 19 0
6 15 0
5 1 0
13 5 0
14 8 0
16 6 0
15 22 0
15 28 0
12 27 0
13 29 0
15 33 0
16 31 0
17 62 0
16 51 0
14 36 0
13 57 0
11 45 0
13 32 0
0 52 0
2 30 0
6 53 0
3 61 0
0 63 0
0 70 0
3 74 0
3 78 0
3 81 0
0 82 0
0 91 0
0 107 0
1 115 0
4 116 0
5 109 0
3 102 0
11 105 0
12 108 0
10 116 0
13 115 0
15 113 0
14 104 0
14 89 0
9 96 0
6 101 0
11 83 0
6 65 0
12 86 0
16 78 0
22 77 0
24 82 0
27 68 0
29 102 0
28 91 0
25 90 0
21 102 0
17 107 0
20 111 0
23 111 0
27 109 0
28 107 0
34 107 0
31 111 0
33 113 0
36 110 0
36 104 0
34 95 0
35 84 0
33 92 0
29 87 0
29 75 0
29 65 0
30 80 0
32 73 0
30 62 0
34 57 0
39 42 0
30 47 0
26 51 0
29 58 0
24 53 0
22 58 0
17 56 0
18 40 0
19 42 0
21 50 0
28 31 0
23 28 0
19 14 0
21 12 0
22 1 0
28 12 0
32 1 0
30 22 0
32 30 0
38 39 0
35 25 0
36 22 0
38 1 0
39 12 0
43 1 0
46 10 0
42 26 0
41 40 0
39 17 0
42 48 0
42 52 0
39 69 0
48 72 0
43 60 0
46 48 0
59 49 0
58 52 0
52 55 0
59 72 0
59 68 0
60 42 0
54 27 0
51 24 0
51 36 0
51 4 0
50 20 0
54 23 0
56 5 0
69 8 0
64 21 0
65 40 0
71 34 0
77 21 0
78 1 0
82 25 0
85 4 0
135 29 0
144 34 0
114 36 0
105 34 0
71 46 0
75 51 0
92 46 0
100 71 0
85 68 0
84 53 0
64 60 0
67 54 0
66 46 0
61 61 0
61 51 0
63 63 0
62 66 0
65 79 0
68 83 0
64 86 0
69 80 0
73 80 0
73 73 0
73 85 0
75 76 0
90 76 0
108 90 0
94 92 0
82 91 0
91 97 0
97 99 0
156 96 0
172 112 0
131 110 0
105 106 0
73 115 0
75 107 0
84 105 0
63 107 0
63 98 0
66 112 0
69 116 0
60 98 0
60 108 0
56 98 0
51 85 0
53 97 0
61 93 0
59 83 0
57 79 0
62 78 0
54 72 0
51 74 0
52 78 0
52 81 0
50 91 0
46 87 0
46 78 0
45 72 0
40 75 0
40 93 0
43 99 0
45 98 0
47 102 0
45 114 0
46 108 0
45 104 0
39 105 0
55 122 0
63 125 0
65 116 0
62 134 0
61 128 0
56 137 0
62 150 0
61 165 0
58 166 0
64 168 0
64 162 0
67 140 0
71 148 0
68 150 0
74 157 0
78 169 0
87 145 0
79 142 0
81 138 0
77 138 0
70 135 0
83 122 0
79 126 0
90 125 0
91 134 0
103 120 0
105 141 0
97 143 0
107 146 0
117 130 0
126 120 0
135 131 0
149 126 0
155 123 0
174 133 0
145 142 0
138 138 0
152 156 0
173 152 0
175 147 0
158 170 0
155 170 0
154 160 0
146 163 0
135 163 0
138 161 0
122 162 0
96 160 0
131 163 0
110 168 0
140 171 0
139 175 0
147 178 0
148 189 0
151 186 0
150 179 0
152 171 0
158 175 0
173 173 0
161 183 0
157 183 0
156 177 0
156 202 0
159 200 0
169 196 0
165 212 0
164 207 0
153 204 0
138 210 0
148 201 0
149 198 0
124 197 0
123 194 0
127 205 0
128 209 0
106 211 0
95 205 0
91 207 0
76 202 0
85 201 0
99 201 0
109 185 0
110 181 0
122 180 0
81 173 0
102 194 0
93 196 0
98 196 0
71 187 0
73 181 0
74 176 0
62 179 0
67 181 0
58 183 0
57 193 0
58 199 0
75 190 0
70 208 0
75 206 0
58 206 0
55 200 0
49 210 0
48 207 0
52 205 0
46 202 0
48 203 0
47 205 0
36 210 0
34 206 0
27 211 0
27 202 0
28 200 0
43 199 0
36 185 0
33 184 0
33 193 0
28 177 0
32 178 0
40 181 0
45 183 0
47 191 0
45 197 0
51 191 0
53 189 0
53 178 0
53 174 0
48 161 0
45 157 0
42 174 0
41 145 0
43 143 0
52 148 0
52 141 0
49 120 0
47 117 0
43 123 0
42 133 0
44 136 0
32 134 0
36 119 0
38 116 0
32 143 0
30 146 0
27 146 0
33 160 0
39 147 0
41 159 0
36 165 0
35 162 0
34 168 0
28 169 0
20 161 0
18 171 0
15 156 0
15 152 0
18 140 0
24 137 0
26 127 0
23 120 0
22 117 0
18 117 0
21 122 0
15 125 0
10 136 0
11 130 0
5 119 0
1 118 0
4 137 0
1 138 0
8 145 0
9 147 0
12 145 0
13 159 0
15 170 0
8 155 0
2 167 0
3 179 0
6 180 0
0 181 0
8 186 0
9 181 0
7 172 0
19 180 0
19 183 0
24 172 0
24 185 0
21 185 0
18 185 0
16 189 0
13 192 0
20 194 0
21 204 0
26 206 0
25 209 0
23 207 0
12 212 0
12 203 0
8 199 0
6 192 0
2 190 0
7 203 0
4 206 0
8 214 0
11 217 0
19 213 0
35 228 0
24 227 0
4 222 0
0 230 0
20 244 0
12 248 0
26 244 0
28 240 0
21 236 0
37 230 0
44 233 0
40 237 0
55 243 0
48 241 0
55 234 0
43 219 0
43 227 0
41 218 0
41 215 0
37 214 0
43 216 0
48 216 0
58 217 0
55 221 0
58 226 0
70 222 0
63 216 0
66 215 0
76 218 0
86 213 0
95 217 0
107 226 0
91 230 0
70 227 0
84 238 0
103 238 0
105 233 0
104 248 0
100 244 0
98 239 0
65 248 0
81 246 0
67 245 0
57 241 0
56 237 0
62 242 0
59 245 0
67 251 0
62 251 0
57 260 0
73 300 0
79 279 0
78 260 0
90 263 0
97 259 0
110 267 0
100 269 0
95 281 0
91 269 0
90 309 0
91 320 0
96 315 0
109 321 0
96 345 0
73 322 0
67 340 0
62 328 0
59 319 0
50 335 0
51 329 0
49 340 0
52 344 0
32 344 0
29 330 0
29 340 0
27 306 0
36 328 0
48 284 0
44 268 0
43 255 0
48 249 0
28 253 0
39 256 0
33 273 0
39 276 0
19 293 0
10 282 0
18 255 0
0 257 0
0 270 0
5 278 0
0 297 0
7 313 0
12 304 0
18 335 0
14 313 0
11 339 0
7 342 0
0 361 0
9 367 0
0 368 0
22 361 0
11 351 0
23 351 0
32 355 0
33 348 0
35 356 0
41 360 0
39 365 0
31 363 0
34 371 0
45 371 0
46 375 0
51 381 0
50 385 0
47 384 0
28 383 0
32 379 0
19 373 0
12 378 0
6 371 0
17 380 0
0 385 0
0 414 0
14 392 0
21 417 0
23 426 0
21 441 0
13 438 0
7 487 0
10 496 0
3 507 0
14 495 0
10 490 0
10 471 0
29 490 0
25 508 0
36 513 0
41 513 0
38 501 0
43 497 0
37 452 0
33 462 0
28 471 0
40 435 0
48 388 0
[...]
CELL_DATA 16896
COLOR_SCALARS ColorSpace 1
0.564706
0.555556
0.471895
0.54902
0.563399
0.0745098
0.0732026
0.555556
0.0745098
0.0718954
0.56732
0.551634
0.55817
0.0732026
0.111111
0.541176
0.0771242
0.0862745
0.568627
0.0928105
0.555556
0.359477
0.550327
0.449673
0.0836601
0.512418
0.552941
0.414379
0.075817
0.539869
0.546405
0.537255
0.317647
0.0745098
0.213072
0.551634
0.546405
0.115033
0.300654
0.54902
0.0810458
0.0771242
0.541176
0.546405
0.535948
0.550327
0.537255
0.546405
0.546405
0.282353
0.556863
0.270588
0.54902
0.535948
0.555556
0.563399
0.112418
0.435294
0.566013
0.56732
0.556863
0.36732
0.437908
0.559477
0.122876
0.499346
0.132026
0.389542
0.550327
0.534641
0.122876
0.373856
0.559477
0.555556
0.559477
0.568627
0.564706
0.562092
0.439216
0.568627
0.55817
0.563399
0.133333
0.555556
0.115033
0.55817
0.555556
0.556863
0.356863
0.550327
0.560784
0.551634
0.555556
0.556863
0.555556
0.163399
0.236601
0.104575
0.193464
0.332026
0.193464
0.130719
0.10719
0.244444
0.096732
0.550327
0.239216
0.546405
0.445752
0.562092
0.473203
0.541176
0.552941
0.545098
0.547712
0.546405
0.54902
0.54902
0.109804
0.134641
0.552941
0.547712
0.54902
0.535948
0.535948
0.543791
0.534641
0.539869
0.537255
0.539869
0.542484
0.539869
0.135948
0.542484
0.0888889
0.541176
0.545098
0.545098
0.542484
0.541176
0.543791
0.539869
0.0875817
0.0875817
0.104575
0.482353
0.206536
0.552941
0.111111
0.318954
0.550327
0.547712
0.552941
0.535948
0.555556
0.423529
0.550327
0.552941
0.517647
0.546405
0.0797386
0.0745098
0.0745098
0.0732026
0.0718954
0.0745098
0.0745098
0.0745098
0.179085
0.0888889
0.462745
0.554248
0.0810458
0.120261
0.462745
0.245752
0.537255
0.541176
0.543791
0.542484
0.539869
0.51634
0.542484
0.0732026
0.0732026
0.547712
0.54902
0.0745098
0.54902
0.543791
0.529412
0.534641
0.551634
0.545098
0.552941
0.0901961
0.156863
0.419608
0.55817
0.554248
0.0745098
0.0718954
0.0732026
0.0745098
0.552941
0.538562
0.552941
0.543791
0.554248
0.562092
0.539869
0.562092
0.56732
0.233987
0.369935
0.162092
0.075817
0.554248
0.554248
0.172549
0.551634
0.461438
0.56732
0.183007
0.0745098
0.0732026
0.563399
0.564706
0.303268
0.566013
0.559477
0.560784
0.522876
0.0915033
0.56732
0.568627
0.559477
0.563399
0.0732026
0.56732
0.563399
0.560784
0.537255
0.569935
0.573856
0.566013
0.566013
0.564706
0.566013
0.564706
0.563399
0.563399
0.56732
0.566013
0.0823529
0.566013
0.568627
0.56732
0.566013
0.321569
0.464052
0.128105
0.427451
0.554248
0.0928105
0.345098
0.437908
0.309804
0.141176
0.0810458
0.237908
0.0836601
0.0941176
0.0954248
0.121569
0.239216
0.155556
0.286275
0.104575
0.0862745
0.290196
0.534641
0.146405
0.206536
0.142484
0.0849673
0.300654
0.290196
0.388235
0.545098
0.267974
0.10719
0.0888889
0.43268
0.096732
0.0941176
0.14902
0.522876
0.562092
0.564706
0.0915033
0.0993464
0.413072
0.453595
0.239216
0.163399
0.564706
0.211765
0.556863
0.104575
0.0862745
0.551634
0.477124
0.562092
0.563399
0.568627
0.563399
0.560784
0.564706
0.566013
0.564706
0.564706
0.564706
0.564706
0.55817
0.562092
0.559477
0.559477
0.562092
0.566013
0.563399
0.560784
0.554248
0.555556
0.555556
0.554248
0.552941
0.101961
0.555556
0.100654
0.559477
0.19085
0.551634
0.555556
0.532026
0.526797
0.515033
0.267974
0.322876
0.328105
0.560784
0.555556
0.559477
0.103268
0.552941
0.437908
0.555556
0.0836601
0.0836601
0.464052
0.313725
0.556863
0.552941
0.55817
0.556863
0.562092
0.560784
0.563399
0.560784
0.555556
0.555556
0.445752
0.555556
0.556863
0.552941
0.524183
0.55817
0.556863
0.555556
0.55817
0.0745098
0.194771
0.517647
0.552941
0.551634
0.554248
0.555556
0.555556
0.554248
0.469281
0.552941
0.551634
0.554248
0.556863
0.265359
0.453595
0.550327
0.552941
0.550327
0.439216
0.554248
0.405229
0.183007
0.351634
0.368627
0.328105
0.261438
0.554248
0.0875817
0.152941
0.369935
0.0915033
0.203922
0.19085
0.130719
0.143791
0.0980392
0.443137
0.219608
0.333333
0.130719
0.0875817
0.227451
0.27451
0.0993464
0.0993464
0.530719
0.34902
0.096732
0.0797386
0.105882
0.0849673
0.384314
0.264052
0.423529
0.100654
0.128105
0.303268
0.524183
0.524183
0.554248
0.539869
0.284967
0.550327
0.271895
0.458824
0.528105
0.343791
0.552941
0.551634
0.160784
0.541176
0.490196
0.168627
0.545098
0.543791
0.554248
0.543791
0.215686
0.547712
0.440523
0.552941
0.197386
0.444444
0.554248
0.410458
0.551634
0.555556
0.538562
0.500654
0.550327
0.550327
0.552941
0.551634
0.552941
0.54902
0.552941
0.547712
0.547712
0.547712
0.550327
0.545098
0.547712
0.547712
0.546405
0.550327
0.547712
0.543791
0.54902
0.545098
0.54902
0.545098
0.551634
0.54902
0.534641
0.543791
0.54902
0.541176
0.541176
0.547712
0.543791
0.541176
0.543791
0.538562
0.545098
0.54902
0.54902
0.537255
0.54902
0.543791
0.538562
0.538562
0.538562
0.541176
0.534641
0.535948
0.541176
0.541176
0.541176
0.538562
0.534641
0.537255
0.542484
0.535948
0.538562
0.541176
0.538562
0.542484
0.453595
0.543791
0.176471
0.470588
0.100654
0.290196
0.135948
0.124183
0.545098
0.0849673
0.545098
0.539869
0.534641
0.54902
0.54902
0.542484
0.364706
0.096732
0.546405
0.470588
0.54902
0.481046
0.54902
0.252288
0.541176
0.2
0.222222
0.298039
0.470588
0.547712
0.54902
0.439216
0.542484
0.535948
0.537255
0.538562
0.406536
0.545098
0.539869
0.542484
0.245752
0.401307
0.279739
0.52549
0.547712
0.291503
0.543791
0.542484
0.410458
0.546405
0.499346
0.547712
0.410458
0.247059
0.0980392
0.104575
0.496732
0.501961
0.470588
0.0771242
0.546405
0.550327
0.475817
0.427451
0.0718954
0.462745
0.0928105
0.414379
0.0771242
0.0888889
0.552941
0.132026
0.419608
0.43268
0.0771242
0.230065
0.405229
0.0849673
0.0745098
0.096732
0.535948
0.550327
0.552941
0.547712
0.550327
0.547712
0.554248
0.555556
0.552941
0.551634
0.503268
0.551634
0.179085
0.550327
0.075817
0.554248
0.0732026
0.552941
0.554248
0.555556
0.260131
0.554248
0.0771242
0.54902
0.0888889
0.508497
0.075817
0.0745098
0.552941
0.224837
0.554248
0.54902
0.551634
0.0732026
0.436601
0.551634
0.0732026
0.0745098
0.0745098
0.0745098
0.0745098
0.075817
0.075817
0.0745098
0.0823529
0.0745098
0.075817
0.0745098
0.0745098
0.0705882
0.0718954
0.0745098
0.0732026
0.0732026
0.0745098
0.0745098
0.0732026
0.0732026
0.0732026
0.530719
0.0732026
0.0718954
0.0718954
0.0718954
0.347712
0.192157
0.4
0.0732026
0.0980392
0.0705882
0.435294
0.25098
0.543791
0.0732026
0.545098
0.0745098
0.0745098
0.473203
0.0745098
0.0745098
0.0745098
0.075817
0.330719
0.0732026
0.0745098
0.075817
0.0732026
0.075817
0.075817
0.0745098
0.150327
0.194771
0.0836601
0.526797
0.137255
0.546405
0.0784314
0.543791
0.537255
0.346405
0.112418
0.411765
0.542484
0.542484
0.473203
0.28366
0.539869
0.541176
0.545098
0.546405
0.543791
0.381699
0.352941
0.223529
0.545098
0.545098
0.545098
0.543791
0.543791
0.545098
0.535948
0.538562
0.539869
0.546405
0.545098
0.546405
0.54902
0.550327
0.546405
0.366013
0.547712
0.481046
0.0679739
0.54902
0.0745098
0.54902
0.547712
0.547712
0.54902
0.551634
0.543791
0.550327
0.545098
0.541176
0.54902
0.546405
0.534641
0.546405
0.54902
0.54902
0.552941
0.543791
0.546405
0.537255
0.542484
0.543791
0.537255
0.537255
0.546405
0.537255
0.542484
0.538562
0.539869
0.534641
0.534641
0.532026
0.533333
0.532026
0.530719
0.534641
0.533333
0.535948
0.539869
0.538562
0.535948
0.552941
0.535948
0.539869
0.545098
0.535948
0.546405
0.550327
0.538562
0.534641
0.545098
0.545098
0.543791
0.550327
0.552941
0.54902
0.554248
0.550327
0.0732026
0.543791
0.545098
0.532026
0.550327
0.550327
0.416993
0.54902
0.546405
0.545098
0.075817
0.547712
0.54902
0.478431
0.524183
0.54902
0.54902
0.19085
0.0732026
0.0732026
0.550327
0.0771242
0.0718954
0.0732026
0.0732026
0.0732026
0.0745098
0.0732026
0.0732026
0.418301
0.550327
0.0732026
0.551634
0.166013
0.075817
0.530719
0.552941
0.546405
0.554248
0.551634
0.54902
0.552941
0.550327
0.552941
0.554248
0.551634
0.552941
0.552941
0.551634
0.551634
0.554248
0.215686
0.556863
0.552941
0.55817
0.103268
0.179085
0.555556
0.554248
0.55817
0.48366
0.281046
0.465359
0.112418
0.556863
0.467974
0.490196
0.179085
0.184314
0.105882
0.248366
0.228758
0.111111
0.103268
0.0745098
0.133333
0.124183
0.193464
0.186928
0.175163
0.0784314
0.542484
0.16732
0.394771
0.196078
0.554248
0.555556
0.145098
0.552941
0.555556
0.541176
0.551634
0.203922
0.075817
0.552941
0.0745098
0.401307
0.0732026
0.0928105
0.0745098
0.0745098
0.0718954
0.552941
0.0718954
0.552941
0.0745098
0.0732026
0.559477
0.0745098
0.186928
0.0745098
0.329412
0.137255
0.075817
0.0745098
0.0718954
0.415686
0.564706
0.560784
0.075817
0.0705882
0.559477
0.505882
0.55817
0.0732026
0.559477
0.555556
0.0928105
0.559477
0.431373
0.562092
0.0705882
0.346405
0.420915
0.0784314
0.0745098
0.0810458
0.0732026
0.0732026
0.0993464
0.0732026
0.0823529
0.0745098
0.0980392
0.10719
0.566013
0.568627
0.566013
0.562092
0.563399
0.0745098
0.562092
0.564706
0.481046
0.562092
0.210458
0.559477
0.0823529
0.0784314
0.555556
0.273203
0.461438
0.562092
0.471895
0.556863
0.564706
0.0901961
0.568627
0.564706
0.562092
0.56732
0.564706
0.566013
0.562092
0.568627
0.568627
0.564706
0.563399
0.563399
0.56732
0.571242
0.566013
0.423529
0.562092
0.56732
0.564706
0.458824
0.572549
0.562092
0.566013
0.571242
0.571242
0.566013
0.569935
0.564706
0.571242
0.564706
0.569935
0.568627
0.56732
0.547712
0.560784
0.559477
0.103268
0.566013
0.535948
0.564706
0.559477
0.486275
0.347712
0.52549
0.113725
0.368627
0.430065
0.214379
0.151634
0.559477
0.509804
0.56732
0.214379
0.559477
0.109804
0.461438
0.0954248
0.462745
0.559477
0.559477
0.347712
0.461438
0.559477
0.564706
0.564706
0.568627
0.566013
0.564706
0.56732
0.569935
0.568627
0.571242
0.56732
0.569935
0.571242
0.571242
0.56732
0.346405
0.0915033
0.34902
0.443137
0.0888889
0.352941
0.396078
0.135948
0.271895
0.566013
0.545098
0.551634
0.55817
0.551634
0.564706
0.562092
0.524183
0.32549
0.265359
0.113725
0.0875817
0.51634
0.282353
0.439216
0.413072
0.48366
0.420915
0.224837
0.118954
0.0888889
0.151634
0.0836601
0.443137
0.461438
0.130719
0.0784314
0.0849673
0.210458
0.49281
0.535948
0.0941176
0.0862745
0.410458
0.0823529
0.0849673
0.0941176
0.0823529
0.0888889
0.0810458
0.0875817
0.0915033
0.0875817
0.128105
0.108497
0.28366
0.301961
0.278431
0.298039
0.169935
0.23268
0.379085
0.181699
0.210458
0.139869
0.334641
0.0993464
0.196078
0.104575
0.298039
0.172549
0.0901961
0.105882
0.111111
0.104575
0.0954248
0.456209
0.115033
0.422222
0.180392
0.420915
0.0915033
0.0797386
0.0901961
0.138562
0.0823529
0.0849673
0.0928105
0.0888889
0.498039
0.0771242
0.0915033
0.0823529
0.0849673
0.133333
0.0875817
0.104575
0.379085
0.0928105
0.0915033
0.0849673
0.103268
0.34902
0.205229
0.118954
0.267974
0.25098
0.256209
0.279739
0.0915033
0.460131
0.28366
0.211765
0.267974
0.287582
0.203922
0.169935
0.304575
0.2
0.264052
0.10719
0.271895
0.237908
0.108497
0.171242
0.163399
0.0810458
0.0849673
0.096732
0.0901961
0.0915033
0.103268
0.0823529
0.0784314
0.0862745
0.0993464
0.115033
0.0862745
0.0888889
0.113725
0.075817
0.0941176
0.16732
0.546405
0.0980392
0.118954
0.542484
0.121569
0.48366
0.0797386
0.103268
0.0928105
0.427451
0.0797386
0.0823529
0.0875817
0.113725
0.0797386
0.426144
0.466667
0.537255
0.213072
0.552941
0.278431
0.145098
0.254902
0.168627
0.132026
0.366013
0.113725
0.545098
0.537255
0.560784
0.559477
0.383007
0.560784
0.338562
0.105882
0.100654
0.12549
0.0836601
0.494118
0.130719
0.0941176
0.0993464
0.511111
0.560784
0.562092
0.562092
0.560784
0.418301
0.559477
0.120261
0.16732
0.0823529
0.45098
0.541176
0.244444
0.388235
0.211765
0.45098
0.181699
0.075817
0.0862745
0.422222
0.495425
0.0928105
0.0823529
0.428758
0.470588
0.0784314
0.15817
0.0993464
0.560784
0.118954
0.55817
0.0875817
0.376471
0.466667
0.559477
0.55817
0.415686
0.2
0.481046
0.121569
0.560784
0.295425
0.55817
0.534641
0.562092
0.564706
0.356863
0.535948
0.345098
0.560784
0.568627
0.563399
0.560784
0.560784
0.564706
0.559477
0.563399
0.568627
0.559477
0.569935
0.563399
0.566013
0.55817
0.566013
0.566013
0.560784
0.564706
0.56732
0.56732
0.563399
0.564706
0.564706
0.566013
0.424837
0.564706
0.538562
0.560784
0.563399
0.560784
0.562092
0.55817
0.564706
0.509804
0.560784
0.562092
0.560784
0.237908
0.419608
0.55817
0.560784
0.538562
0.484967
0.128105
0.563399
0.320261
0.550327
0.547712
0.556863
0.55817
0.55817
0.554248
0.555556
0.555556
0.55817
0.555556
0.556863
0.559477
0.559477
0.556863
0.559477
0.560784
0.563399
0.562092
0.562092
0.562092
0.560784
0.562092
0.55817
0.55817
0.560784
0.555556
0.560784
0.55817
0.562092
0.55817
0.562092
0.560784
0.562092
0.563399
0.563399
0.560784
0.55817
0.564706
0.559477
0.556863
0.55817
0.559477
0.55817
0.55817
0.556863
0.555556
0.556863
0.555556
0.538562
0.55817
0.556863
0.556863
0.556863
0.55817
0.443137
0.55817
0.555556
0.538562
0.267974
0.545098
0.375163
0.113725
0.301961
0.475817
0.431373
0.556863
0.546405
0.295425
0.368627
0.555556
0.560784
0.55817
0.20915
0.385621
0.134641
0.517647
0.0823529
0.351634
0.0823529
0.265359
0.440523
0.501961
0.203922
0.0888889
0.0875817
0.108497
0.130719
0.0836601
0.0862745
0.11634
0.51634
0.159477
0.444444
0.454902
0.490196
0.552941
0.475817
0.231373
0.10719
0.32549
0.305882
0.495425
0.437908
0.440523
0.329412
0.418301
0.433987
0.559477
0.554248
0.55817
0.551634
0.555556
0.159477
0.554248
0.555556
0.555556
0.228758
0.0849673
0.108497
0.375163
0.150327
0.245752
0.362092
0.142484
0.175163
0.112418
0.298039
0.560784
0.403922
0.552941
0.539869
0.545098
0.542484
0.172549
0.556863
0.44183
0.51634
0.252288
0.554248
0.559477
0.554248
0.555556
0.554248
0.556863
0.54902
0.330719
0.335948
0.384314
0.560784
0.552941
0.554248
0.545098
0.556863
0.560784
0.55817
0.555556
0.562092
0.563399
0.555556
0.559477
0.556863
0.55817
0.55817
0.55817
0.55817
0.55817
0.563399
0.559477
0.560784
0.559477
0.560784
0.566013
0.564706
0.563399
0.559477
0.560784
0.560784
0.562092
0.563399
0.562092
0.55817
0.560784
0.55817
0.551634
0.562092
0.555556
0.159477
0.552941
0.481046
0.555556
0.560784
0.559477
0.559477
0.560784
0.555556
0.559477
0.559477
0.560784
0.55817
0.560784
0.554248
0.554248
0.55817
0.560784
0.559477
0.55817
0.559477
0.55817
0.55817
0.555556
0.196078
0.0797386
0.135948
0.0745098
0.0771242
0.205229
0.555556
0.142484
0.0901961
0.559477
0.120261
0.193464
0.556863
0.562092
0.40915
0.0797386
0.43268
0.0745098
0.189542
0.0901961
0.0745098
0.243137
0.0745098
0.0745098
0.0797386
0.556863
0.0745098
0.0745098
0.0745098
0.0745098
0.0745098
0.0745098
0.0823529
0.0745098
0.0718954
0.075817
0.0745098
0.0745098
0.260131
0.556863
0.556863
0.555556
0.304575
0.552941
0.505882
0.554248
0.552941
0.552941
0.551634
0.419608
0.555556
0.554248
0.551634
0.54902
0.554248
0.554248
0.556863
0.555556
0.554248
0.556863
0.555556
0.554248
0.55817
0.556863
0.545098
0.193464
0.551634
0.555556
0.552941
0.546405
0.551634
0.552941
0.0954248
0.347712
0.0941176
0.538562
0.137255
0.45098
0.115033
0.0901961
0.0901961
0.235294
0.0928105
0.0849673
0.537255
0.216993
0.532026
0.494118
0.555556
0.550327
0.554248
0.552941
0.556863
0.550327
0.551634
0.303268
0.235294
0.471895
0.346405
0.30719
0.419608
0.355556
0.422222
0.550327
0.427451
0.313725
0.439216
0.396078
0.416993
0.338562
0.249673
0.403922
0.223529
0.360784
0.218301
0.231373
0.151634
0.543791
0.303268
0.360784
0.223529
0.362092
0.096732
0.351634
0.313725
0.146405
0.299346
0.183007
0.393464
0.108497
0.258824
0.0915033
0.24183
0.318954
0.453595
0.0901961
0.401307
0.392157
0.315033
0.383007
0.27451
0.479739
0.0993464
0.12549
0.096732
0.0915033
0.0954248
0.0954248
0.179085
0.215686
0.0849673
0.0915033
0.0875817
0.0888889
0.137255
0.0875817
0.0849673
0.0928105
0.0915033
0.134641
0.156863
0.0928105
0.551634
0.556863
0.231373
0.231373
0.108497
0.543791
0.554248
0.363399
0.0836601
0.137255
0.139869
0.329412
0.20915
0.304575
0.139869
0.30719
0.115033
0.145098
0.154248
0.135948
0.145098
0.138562
0.0888889
0.0915033
0.236601
0.121569
0.0941176
0.096732
0.0980392
0.0849673
0.0862745
0.0875817
0.096732
0.0784314
0.135948
0.0993464
0.0875817
0.160784
0.10719
0.0836601
0.396078
0.0954248
0.311111
0.133333
0.112418
0.320261
0.138562
0.0928105
0.137255
0.0862745
0.28366
0.0901961
0.163399
0.0941176
0.0941176
0.12549
0.254902
0.10719
0.0993464
0.120261
0.271895
0.109804
0.308497
0.335948
0.202614
0.29281
0.269281
0.333333
0.35817
0.369935
0.231373
0.402614
0.299346
0.160784
0.196078
0.317647
0.0954248
0.12549
0.185621
0.137255
0.31634
0.104575
0.393464
0.243137
0.117647
0.12549
0.237908
0.115033
0.143791
0.2
0.216993
0.122876
0.168627
0.143791
0.138562
0.32549
0.129412
0.12549
0.16732
0.0823529
0.215686
0.347712
0.315033
0.286275
0.363399
0.419608
0.328105
0.413072
0.491503
0.550327
0.462745
0.296732
0.433987
0.547712
0.543791
0.258824
0.533333
0.415686
0.487582
0.393464
0.559477
0.488889
0.554248
0.508497
0.551634
0.545098
0.54902
0.410458
0.545098
0.10719
0.196078
0.539869
0.423529
0.118954
0.275817
0.542484
0.487582
0.552941
0.142484
0.556863
0.491503
0.418301
0.484967
0.547712
0.542484
0.550327
0.546405
0.542484
0.547712
0.537255
0.54902
0.54902
0.545098
0.54902
0.381699
0.443137
0.552941
0.547712
0.354248
0.550327
0.351634
0.517647
0.512418
0.355556
0.503268
0.554248
0.377778
0.551634
0.205229
0.364706
0.290196
0.290196
0.269281
0.320261
0.278431
0.262745
0.457516
0.282353
0.420915
0.397386
0.329412
0.269281
0.216993
0.279739
0.543791
0.354248
0.396078
0.214379
0.334641
0.427451
0.552941
0.454902
0.535948
0.542484
0.554248
0.54902
0.554248
0.552941
0.550327
0.555556
0.556863
0.552941
0.555556
0.552941
0.554248
0.550327
0.554248
0.513725
0.550327
0.552941
0.550327
0.552941
0.550327
0.559477
0.552941
0.554248
0.55817
0.551634
0.554248
0.54902
0.54902
0.539869
0.551634
0.552941
0.542484
0.554248
0.465359
0.473203
0.545098
0.311111
0.551634
0.503268
0.550327
0.54902
0.547712
0.551634
0.54902
0.551634
0.545098
0.550327
0.550327
0.551634
0.551634
0.547712
0.550327
0.551634
0.551634
0.547712
0.550327
0.552941
0.550327
0.550327
0.546405
0.551634
0.555556
0.54902
0.550327
0.551634
0.54902
0.552941
0.546405
0.547712
0.550327
0.546405
0.54902
0.54902
0.547712
0.547712
0.547712
0.550327
0.545098
0.545098
0.547712
0.546405
0.550327
0.550327
0.545098
0.546405
0.54902
0.550327
0.543791
0.543791
0.543791
0.550327
0.550327
0.547712
0.54902
0.547712
0.542484
0.542484
0.547712
0.54902
0.546405
0.54902
0.54902
0.54902
0.547712
0.551634
0.547712
0.54902
0.54902
0.54902
0.550327
0.547712
0.54902
0.546405
0.54902
0.54902
0.547712
0.547712
0.54902
0.543791
0.54902
0.543791
0.554248
0.551634
0.547712
0.546405
0.550327
0.545098
0.546405
0.543791
0.546405
0.547712
0.54902
0.543791
0.541176
0.547712
0.547712
0.543791
0.543791
0.546405
0.542484
0.545098
0.545098
0.542484
0.54902
0.543791
0.546405
0.543791
0.541176
0.545098
0.545098
0.546405
0.546405
0.545098
0.546405
0.54902
0.330719
0.177778
0.20915
0.467974
0.448366
0.196078
0.550327
0.0784314
0.538562
0.0771242
0.0980392
0.205229
0.486275
0.539869
0.546405
0.424837
0.543791
0.545098
0.543791
0.541176
0.181699
0.545098
0.109804
0.545098
0.543791
0.541176
0.542484
0.543791
0.541176
0.543791
0.541176
0.543791
0.546405
0.545098
0.547712
0.545098
0.541176
0.542484
0.539869
0.541176
0.538562
0.537255
0.538562
0.533333
0.535948
0.538562
0.535948
0.532026
0.537255
0.535948
0.533333
0.537255
0.537255
0.537255
0.539869
0.537255
0.534641
0.541176
0.537255
0.537255
0.539869
0.539869
0.535948
0.538562
0.541176
0.539869
0.542484
0.538562
0.541176
0.537255
0.541176
0.539869
0.541176
0.539869
0.542484
0.545098
0.539869
0.541176
0.543791
0.546405
0.547712
0.546405
0.545098
0.545098
0.542484
0.547712
0.543791
0.535948
0.542484
0.539869
0.539869
0.537255
0.541176
0.535948
0.537255
0.539869
0.534641
0.542484
0.535948
0.541176
0.545098
0.543791
0.543791
0.538562
0.538562
0.539869
0.538562
0.538562
0.545098
0.546405
0.539869
0.543791
0.470588
0.435294
0.541176
0.54902
0.541176
0.547712
0.0901961
0.0980392
0.117647
0.096732
0.0888889
0.543791
0.0888889
0.469281
0.0941176
0.0875817
0.0941176
0.0915033
0.0888889
0.546405
0.0915033
0.118954
0.386928
0.0901961
0.109804
0.214379
0.0784314
0.108497
0.48366
0.547712
0.177778
0.448366
0.0849673
0.2
0.31634
0.0810458
0.0888889
0.551634
0.43268
0.547712
0.543791
0.550327
0.324183
0.541176
0.0745098
0.0849673
0.545098
0.547712
0.539869
0.546405
0.545098
0.54902
0.19085