# vtk DataFile Version 1.0
Unstructured Grid Example
ASCII

DATASET UNSTRUCTURED_GRID
POINTS 2381 float
18 209 0
39 40 0
79 346 0
36 367 0
168 308 0
169 345 0
447 202 0
427 141 0
323 67 0
7 30 0
25 25 0
41 52 0
146 179 0
165 172 0
47 202 0
4 115 0
57 215 0
28 356 0
141 376 0
172 329 0
169 384 0
154 322 0
170 273 0
193 292 0
174 384 0
252 513 0
258 339 0
264 316 0
332 262 0
318 261 0
442 153 0
439 192 0
383 216 0
266 151 0
344 122 0
368 133 0
368 116 0
6 13 0
0 35 0
3 46 0
7 44 0
28 26 0
13 16 0
28 29 0
45 1 0
112 1 0
57 61 0
58 97 0
49 92 0
34 42 0
21 128 0
29 101 0
35 112 0
117 172 0
53 129 0
44 149 0
25 136 0
20 187 0
14 142 0
17 126 0
8 155 0
3 128 0
13 163 0
1 174 0
10 192 0
13 192 0
16 191 0
34 221 0
41 216 0
27 193 0
5 209 0
0 232 0
0 259 0
0 511 0
38 359 0
28 380 0
18 231 0
39 224 0
46 269 0
52 374 0
47 380 0
142 415 0
105 417 0
67 371 0
142 362 0
118 221 0
73 221 0
46 219 0
49 200 0
51 193 0
55 200 0
67 190 0
163 258 0
170 304 0
177 267 0
176 311 0
169 329 0
164 318 0
158 325 0
164 351 0
149 386 0
152 513 0
184 366 0
176 368 0
164 366 0
181 365 0
196 355 0
192 359 0
204 367 0
503 489 0
506 502 0
214 358 0
241 356 0
260 347 0
232 354 0
198 312 0
319 268 0
314 291 0
327 271 0
465 306 0
463 207 0
467 154 0
477 151 0
457 173 0
457 151 0
461 182 0
457 182 0
417 230 0
349 212 0
158 237 0
254 190 0
399 152 0
428 145 0
450 143 0
372 142 0
305 137 0
263 140 0
256 129 0
222 103 0
326 118 0
377 132 0
414 1 0
406 122 0
381 138 0
421 131 0
457 104 0
510 16 0
471 3 0
7 1 0
9 16 0
11 14 0
10 28 0
2 26 0
1 17 0
1 28 0
4 36 0
0 44 0
6 62 0
9 54 0
6 39 0
6 33 0
14 37 0
16 40 0
16 46 0
19 37 0
22 44 0
26 32 0
19 28 0
23 27 0
15 26 0
13 28 0
12 19 0
13 12 0
16 9 0
19 2 0
28 2 0
26 7 0
27 12 0
41 30 0
28 23 0
31 5 0
38 1 0
49 14 0
51 2 0
73 1 0
69 16 0
54 33 0
49 23 0
41 34 0
48 40 0
56 48 0
79 56 0
65 62 0
58 56 0
51 59 0
45 64 0
34 48 0
35 38 0
35 35 0
32 35 0
29 35 0
26 41 0
29 54 0
39 97 0
40 113 0
39 125 0
44 128 0
44 90 0
47 88 0
45 71 0
54 65 0
58 79 0
60 69 0
92 86 0
91 109 0
76 105 0
51 101 0
58 134 0
82 135 0
128 134 0
60 149 0
71 143 0
58 145 0
56 142 0
54 139 0
54 135 0
51 132 0
45 144 0
39 139 0
48 147 0
39 153 0
26 151 0
22 139 0
14 155 0
23 123 0
14 122 0
30 120 0
33 134 0
36 106 0
32 106 0
31 98 0
13 109 0
27 98 0
30 115 0
27 118 0
8 125 0
9 108 0
8 96 0
7 90 0
0 72 0
7 111 0
0 123 0
0 142 0
10 136 0
12 131 0
10 145 0
12 159 0
8 143 0
0 158 0
0 163 0
5 173 0
1 185 0
10 174 0
15 178 0
16 172 0
6 169 0
24 176 0
34 165 0
39 171 0
33 183 0
45 184 0
23 185 0
18 180 0
33 190 0
41 193 0
47 194 0
47 198 0
45 196 0
38 198 0
35 204 0
19 192 0
29 190 0
23 188 0
18 196 0
0 189 0
4 197 0
18 199 0
2 212 0
15 212 0
21 207 0
11 385 0
16 332 0
9 369 0
9 234 0
0 419 0
0 480 0
0 501 0
23 438 0
19 513 0
17 411 0
0 389 0
27 261 0
29 395 0
29 513 0
47 513 0
38 252 0
47 245 0
47 236 0
43 211 0
33 218 0
29 235 0
36 210 0
39 209 0
41 207 0
44 207 0
51 367 0
57 363 0
62 237 0
92 374 0
100 374 0
85 369 0
79 370 0
62 379 0
68 389 0
50 396 0
69 491 0
79 388 0
106 384 0
86 381 0
113 384 0
113 409 0
114 448 0
125 402 0
119 388 0
127 380 0
141 372 0
130 365 0
130 341 0
111 330 0
119 269 0
128 323 0
134 250 0
135 277 0
141 226 0
136 225 0
145 214 0
96 225 0
70 208 0
69 229 0
133 230 0
55 218 0
50 224 0
48 221 0
49 218 0
55 205 0
57 208 0
59 202 0
63 193 0
62 189 0
49 196 0
53 185 0
55 167 0
57 174 0
62 164 0
66 165 0
70 176 0
117 199 0
136 180 0
136 189 0
144 163 0
132 161 0
146 272 0
154 297 0
146 299 0
157 314 0
159 300 0
162 289 0
162 276 0
165 270 0
166 283 0
174 280 0
175 299 0
187 312 0
167 315 0
165 293 0
176 337 0
176 317 0
181 338 0
197 339 0
187 346 0
182 346 0
177 352 0
176 348 0
171 347 0
172 326 0
168 324 0
163 327 0
155 340 0
151 345 0
151 353 0
166 355 0
169 354 0
171 359 0
178 358 0
167 358 0
158 365 0
151 367 0
148 376 0
154 395 0
177 397 0
164 397 0
171 392 0
170 378 0
183 374 0
179 376 0
181 379 0
199 382 0
192 414 0
184 382 0
194 373 0
193 370 0
186 369 0
181 370 0
190 361 0
185 358 0
195 366 0
195 360 0
209 347 0
210 353 0
223 353 0
211 362 0
206 359 0
203 361 0
200 362 0
214 373 0
213 384 0
206 434 0
219 400 0
217 481 0
215 380 0
216 368 0
225 381 0
246 398 0
310 415 0
427 513 0
512 499 0
462 488 0
512 385 0
398 369 0
234 376 0
234 369 0
237 354 0
231 346 0
238 360 0
465 364 0
289 328 0
261 321 0
303 316 0
259 327 0
235 329 0
245 333 0
252 339 0
233 343 0
218 343 0
210 342 0
224 331 0
202 330 0
230 340 0
235 340 0
256 304 0
253 316 0
235 316 0
293 269 0
273 274 0
295 291 0
298 274 0
305 273 0
311 274 0
306 293 0
340 288 0
331 301 0
317 284 0
511 274 0
477 190 0
454 192 0
451 188 0
454 185 0
458 187 0
463 185 0
467 185 0
471 183 0
503 176 0
468 172 0
455 175 0
456 170 0
464 177 0
452 182 0
449 183 0
441 181 0
440 174 0
378 188 0
439 188 0
392 189 0
427 200 0
422 201 0
431 209 0
442 213 0
417 218 0
429 215 0
390 214 0
373 244 0
360 266 0
321 247 0
339 231 0
320 240 0
303 249 0
307 257 0
312 268 0
279 256 0
264 261 0
247 258 0
148 236 0
152 248 0
163 238 0
178 245 0
237 193 0
178 191 0
165 197 0
151 175 0
148 171 0
190 184 0
238 172 0
267 177 0
260 192 0
257 208 0
307 221 0
370 202 0
313 197 0
345 179 0
380 162 0
398 143 0
364 139 0
329 135 0
324 142 0
312 152 0
306 164 0
299 150 0
281 170 0
240 161 0
196 136 0
154 141 0
253 143 0
296 143 0
313 135 0
302 131 0
286 132 0
146 125 0
303 100 0
313 124 0
343 114 0
358 36 0
360 120 0
354 128 0
384 127 0
391 119 0
395 111 0
397 29 0
405 127 0
419 127 0
442 108 0
442 139 0
455 139 0
437 144 0
413 128 0
439 152 0
442 157 0
443 162 0
451 161 0
448 155 0
451 154 0
453 151 0
456 145 0
457 158 0
458 166 0
462 162 0
466 161 0
480 155 0
473 150 0
469 144 0
465 144 0
458 136 0
483 1 0
497 132 0
512 24 0
512 113 0
0 2 0
0 5 0
1 7 0
3 9 0
2 4 0
3 2 0
7 4 0
10 3 0
13 3 0
14 6 0
11 8 0
9 6 0
5 6 0
6 16 0
6 10 0
9 11 0
10 22 0
13 24 0
7 19 0
4 22 0
3 18 0
3 15 0
3 12 0
0 15 0
0 12 0
0 19 0
2 20 0
1 24 0
3 32 0
4 28 0
4 42 0
5 50 0
3 39 0
0 52 0
0 57 0
0 87 0
1 96 0
3 92 0
4 96 0
4 81 0
1 66 0
10 40 0
12 46 0
9 71 0
12 91 0
14 54 0
14 43 0
13 40 0
12 34 0
9 37 0
9 34 0
7 27 0
6 24 0
10 25 0
10 31 0
17 33 0
22 38 0
22 34 0
22 49 0
23 41 0
20 40 0
18 43 0
17 59 0
15 80 0
16 96 0
20 88 0
17 69 0
22 53 0
18 51 0
27 48 0
25 60 0
25 92 0
27 81 0
30 93 0
27 69 0
30 49 0
31 46 0
28 43 0
25 44 0
27 37 0
24 36 0
29 40 0
31 42 0
32 32 0
31 28 0
30 20 0
22 22 0
27 19 0
24 30 0
29 32 0
21 30 0
19 25 0
15 30 0
15 19 0
15 22 0
19 22 0
19 19 0
19 15 0
17 17 0
16 14 0
17 5 0
16 1 0
19 11 0
21 7 0
23 10 0
22 16 0
24 18 0
25 15 0
29 15 0
30 9 0
24 1 0
33 1 0
33 13 0
34 8 0
39 23 0
37 15 0
33 23 0
33 18 0
34 26 0
35 29 0
32 39 0
39 48 0
36 45 0
38 36 0
37 32 0
44 39 0
43 42 0
39 44 0
47 48 0
44 47 0
46 44 0
45 36 0
45 29 0
43 25 0
39 27 0
41 7 0
39 19 0
41 12 0
43 20 0
47 8 0
53 25 0
51 29 0
56 29 0
56 18 0
57 10 0
58 1 0
66 6 0
83 14 0
93 1 0
94 29 0
124 24 0
67 28 0
60 23 0
57 43 0
60 36 0
69 36 0
80 45 0
71 43 0
66 49 0
62 45 0
52 48 0
53 42 0
55 38 0
49 35 0
47 32 0
51 38 0
50 45 0
56 52 0
53 56 0
56 72 0
56 68 0
58 65 0
61 60 0
61 53 0
65 57 0
70 54 0
134 55 0
94 59 0
81 70 0
70 60 0
67 67 0
61 74 0
64 79 0
70 75 0
109 85 0
73 95 0
71 86 0
64 95 0
56 93 0
57 89 0
60 85 0
53 79 0
51 73 0
55 84 0
53 90 0
51 95 0
47 95 0
43 95 0
45 78 0
44 85 0
49 80 0
51 85 0
50 68 0
49 55 0
50 51 0
47 52 0
44 50 0
45 57 0
49 62 0
39 62 0
41 56 0
37 52 0
33 52 0
36 56 0
32 60 0
36 67 0
36 77 0
38 83 0
40 72 0
40 88 0
38 92 0
35 96 0
34 90 0
39 103 0
39 106 0
42 102 0
44 107 0
43 112 0
41 108 0
38 119 0
41 122 0
41 130 0
41 134 0
44 132 0
43 119 0
41 116 0
45 115 0
47 118 0
46 137 0
49 127 0
47 130 0
47 123 0
50 116 0
48 113 0
48 105 0
47 108 0
44 99 0
45 104 0
47 101 0
48 98 0
52 105 0
50 110 0
51 122 0
56 107 0
55 115 0
56 102 0
53 98 0
61 110 0
65 104 0
117 110 0
78 115 0
68 111 0
62 118 0
57 121 0
73 124 0
82 126 0
103 127 0
75 138 0
71 131 0
69 138 0
65 135 0
61 136 0
62 132 0
65 126 0
54 125 0
60 128 0
56 131 0
50 136 0
64 142 0
67 153 0
64 158 0
75 156 0
70 157 0
74 150 0
69 147 0
78 145 0
92 140 0
105 147 0
143 155 0
152 158 0
91 153 0
82 151 0
84 162 0
101 165 0
117 159 0
142 171 0
153 170 0
84 172 0
78 168 0
74 172 0
72 167 0
76 163 0
69 163 0
67 160 0
67 170 0
70 172 0
63 171 0
59 168 0
57 164 0
58 152 0
56 157 0
59 161 0
61 156 0
62 152 0
64 148 0
62 145 0
58 139 0
60 142 0
53 144 0
54 148 0
52 157 0
51 153 0
51 141 0
41 142 0
43 139 0
38 145 0
44 154 0
41 160 0
46 158 0
53 161 0
50 170 0
51 166 0
48 162 0
42 167 0
33 172 0
32 155 0
34 147 0
25 143 0
30 145 0
28 161 0
29 167 0
23 164 0
22 169 0
18 164 0
17 158 0
18 154 0
19 148 0
23 155 0
28 140 0
19 142 0
16 139 0
18 131 0
15 134 0
21 135 0
26 129 0
32 128 0
29 134 0
32 138 0
37 136 0
36 141 0
35 131 0
35 126 0
33 116 0
33 122 0
30 124 0
32 110 0
29 112 0
37 115 0
37 109 0
35 103 0
34 100 0
37 100 0
28 104 0
32 103 0
28 107 0
34 108 0
23 106 0
25 102 0
23 97 0
16 101 0
21 101 0
19 105 0
17 109 0
19 112 0
24 110 0
26 114 0
23 118 0
22 114 0
19 121 0
16 116 0
12 127 0
8 131 0
7 135 0
9 114 0
6 118 0
10 120 0
15 112 0
15 106 0
13 103 0
11 98 0
7 101 0
10 102 0
9 105 0
6 106 0
3 109 0
5 103 0
4 100 0
1 99 0
0 102 0
1 106 0
0 109 0
0 116 0
1 112 0
2 119 0
4 131 0
4 134 0
4 122 0
0 133 0
1 139 0
1 144 0
0 149 0
3 149 0
1 147 0
4 144 0
2 136 0
5 140 0
7 138 0
11 140 0
13 145 0
11 148 0
8 149 0
6 147 0
8 152 0
12 152 0
14 149 0
8 166 0
12 167 0
8 159 0
6 163 0
3 160 0
4 156 0
5 152 0
0 154 0
2 151 0
3 164 0
0 169 0
0 179 0
4 177 0
7 180 0
7 185 0
4 185 0
3 182 0
3 188 0
4 191 0
0 192 0
7 191 0
8 194 0
9 189 0
6 188 0
15 185 0
11 187 0
14 188 0
26 189 0
22 192 0
18 189 0
27 184 0
22 182 0
19 184 0
11 184 0
11 178 0
13 181 0
20 177 0
25 180 0
29 175 0
35 178 0
30 180 0
39 185 0
37 182 0
42 179 0
45 173 0
47 177 0
53 174 0
56 178 0
55 182 0
58 186 0
50 180 0
48 186 0
42 187 0
45 188 0
51 189 0
56 193 0
54 190 0
48 190 0
43 191 0
37 190 0
40 190 0
34 187 0
28 187 0
31 187 0
30 193 0
33 193 0
30 196 0
29 200 0
27 202 0
31 202 0
34 200 0
34 197 0
37 195 0
41 196 0
52 197 0
56 196 0
44 202 0
43 198 0
40 200 0
37 201 0
41 203 0
48 205 0
52 202 0
52 208 0
51 205 0
49 208 0
[...]
CELL_DATA 4649
COLOR_SCALARS ColorSpace 1
0.537255
0.55817
0.366013
0.541176
0.266667
0.166013
0.266667
0.533333
0.550327
0.543791
0.419608
0.500654
0.154248
0.54902
0.0941176
0.11634
0.329412
0.464052
0.0941176
0.101961
0.0954248
0.475817
0.546405
0.183007
0.384314
0.551634
0.118954
0.295425
0.120261
0.473203
0.547712
0.547712
0.252288
0.337255
0.346405
0.546405
0.362092
0.541176
0.541176
0.351634
0.28366
0.490196
0.0849673
0.0823529
0.345098
0.215686
0.154248
0.132026
0.543791
0.407843
0.152941
0.465359
0.481046
0.49281
0.56732
0.15817
0.134641
0.372549
0.233987
0.305882
0.448366
0.0718954
0.564706
0.0993464
0.56732
0.563399
0.273203
0.0875817
0.560784
0.368627
0.227451
0.10719
0.128105
0.377778
0.393464
0.226144
0.132026
0.203922
0.096732
0.562092
0.436601
0.109804
0.556863
0.339869
0.499346
0.564706
0.291503
0.206536
0.11634
0.108497
0.304575
0.10719
0.100654
0.444444
0.443137
0.210458
0.55817
0.0888889
0.550327
0.550327
0.226144
0.379085
0.426144
0.337255
0.160784
0.128105
0.14902
0.214379
0.555556
0.210458
0.0901961
0.54902
0.118954
0.145098
0.253595
0.128105
0.14902
0.139869
0.096732
0.128105
0.551634
0.196078
0.401307
0.132026
0.253595
0.551634
0.345098
0.496732
0.43268
0.484967
0.500654
0.129412
0.551634
0.547712
0.294118
0.126797
0.23268
0.0784314
0.545098
0.376471
0.498039
0.296732
0.552941
0.309804
0.452288
0.0797386
0.214379
0.488889
0.284967
0.543791
0.0797386
0.541176
0.54902
0.176471
0.534641
0.54902
0.513725
0.554248
0.554248
0.500654
0.375163
0.317647
0.207843
0.551634
0.177778
0.435294
0.401307
0.420915
0.554248
0.411765
0.203922
0.547712
0.0836601
0.546405
0.111111
0.464052
0.075817
0.0732026
0.0836601
0.0784314
0.177778
0.550327
0.0862745
0.34902
0.215686
0.427451
0.128105
0.522876
0.546405
0.508497
0.337255
0.342484
0.465359
0.465359
0.426144
0.300654
0.418301
0.377778
0.490196
0.150327
0.0993464
0.128105
0.416993
0.539869
0.550327
0.528105
0.550327
0.363399
0.240523
0.543791
0.543791
0.542484
0.546405
0.533333
0.183007
0.0771242
0.103268
0.504575
0.305882
0.36732
0.448366
0.550327
0.496732
0.538562
0.551634
0.554248
0.237908
0.546405
0.265359
0.55817
0.207843
0.484967
0.508497
0.0875817
0.201307
0.277124
0.552941
0.104575
0.202614
0.547712
0.150327
0.156863
0.55817
0.096732
0.550327
0.320261
0.0810458
0.105882
0.4
0.160784
0.335948
0.47451
0.569935
0.0836601
0.0954248
0.479739
0.560784
0.362092
0.247059
0.563399
0.564706
0.560784
0.556863
0.559477
0.564706
0.143791
0.562092
0.569935
0.571242
0.160784
0.181699
0.0888889
0.141176
0.562092
0.267974
0.34902
0.096732
0.56732
0.573856
0.134641
0.176471
0.543791
0.457516
0.215686
0.264052
0.177778
0.183007
0.240523
0.146405
0.39085
0.0901961
0.0941176
0.113725
0.0875817
0.151634
0.0849673
0.430065
0.0915033
0.16732
0.118954
0.278431
0.128105
0.0941176
0.420915
0.117647
0.256209
0.160784
0.156863
0.301961
0.47451
0.504575
0.524183
0.104575
0.271895
0.176471
0.168627
0.469281
0.355556
0.175163
0.0993464
0.403922
0.291503
0.436601
0.0980392
0.101961
0.563399
0.356863
0.55817
0.560784
0.545098
0.288889
0.562092
0.34902
0.500654
0.562092
0.55817
0.335948
0.0941176
0.562092
0.385621
0.559477
0.554248
0.555556
0.478431
0.426144
0.56732
0.560784
0.440523
0.568627
0.562092
0.568627
0.359477
0.563399
0.215686
0.181699
0.184314
0.233987
0.415686
0.211765
0.198693
0.386928
0.552941
0.184314
0.186928
0.56732
0.210458
0.150327
0.103268
0.176471
0.100654
0.185621
0.236601
0.530719
0.219608
0.0928105
0.10719
0.109804
0.413072
0.31634
0.305882
0.175163
0.562092
0.444444
0.0823529
0.0823529
0.0836601
0.35817
0.11634
0.245752
0.103268
0.101961
0.0941176
0.10719
0.376471
0.096732
0.0901961
0.529412
0.243137
0.135948
0.311111
0.105882
0.559477
0.230065
0.559477
0.330719
0.566013
0.55817
0.560784
0.562092
0.312418
0.431373
0.40915
0.299346
0.156863
0.236601
0.55817
0.562092
0.551634
0.563399
0.282353
0.126797
0.163399
0.152941
0.0980392
0.32549
0.0875817
0.10719
0.0901961
0.192157
0.258824
0.160784
0.405229
0.0901961
0.0888889
0.0875817
0.360784
0.203922
0.0875817
0.237908
0.151634
0.130719
0.0915033
0.138562
0.143791
0.213072
0.133333
0.305882
0.103268
0.176471
0.109804
0.205229
0.0993464
0.203922
0.0928105
0.176471
0.228758
0.372549
0.194771
0.257516
0.117647
0.311111
0.180392
0.287582
0.096732
0.121569
0.299346
0.220915
0.138562
0.16732
0.105882
0.330719
0.0954248
0.218301
0.213072
0.25098
0.214379
0.303268
0.0915033
0.193464
0.100654
0.317647
0.324183
0.364706
0.321569
0.0980392
0.101961
0.301961
0.328105
0.196078
0.219608
0.369935
0.267974
0.203922
0.146405
0.150327
0.376471
0.168627
0.15817
0.105882
0.380392
0.133333
0.10719
0.134641
0.103268
0.188235
0.132026
0.244444
0.150327
0.0836601
0.120261
0.152941
0.499346
0.324183
0.330719
0.0941176
0.0915033
0.437908
0.406536
0.164706
0.345098
0.236601
0.388235
0.338562
0.109804
0.48366
0.192157
0.481046
0.294118
0.534641
0.426144
0.484967
0.54902
0.539869
0.273203
0.383007
0.457516
0.324183
0.342484
0.326797
0.269281
0.299346
0.552941
0.105882
0.550327
0.193464
0.39085
0.547712
0.552941
0.156863
0.448366
0.284967
0.456209
0.375163
0.541176
0.505882
0.545098
0.541176
0.547712
0.550327
0.545098
0.542484
0.539869
0.543791
0.542484
0.535948
0.541176
0.541176
0.445752
0.542484
0.538562
0.317647
0.535948
0.542484
0.521569
0.203922
0.54902
0.54902
0.532026
0.346405
0.419608
0.522876
0.150327
0.317647
0.521569
0.552941
0.244444
0.369935
0.466667
0.237908
0.413072
0.383007
0.379085
0.520261
0.439216
0.111111
0.462745
0.0784314
0.537255
0.29281
0.430065
0.545098
0.162092
0.545098
0.347712
0.550327
0.224837
0.54902
0.210458
0.543791
0.345098
0.537255
0.538562
0.445752
0.541176
0.537255
0.143791
0.205229
0.183007
0.103268
0.164706
0.103268
0.108497
0.543791
0.545098
0.488889
0.545098
0.537255
0.169935
0.443137
0.118954
0.435294
0.129412
0.12549
0.335948
0.406536
0.545098
0.290196
0.546405
0.499346
0.546405
0.430065
0.552941
0.550327
0.547712
0.547712
0.436601
0.554248
0.547712
0.554248
0.218301
0.522876
0.475817
0.556863
0.075817
0.0732026
0.551634
0.54902
0.555556
0.552941
0.551634
0.433987
0.32549
0.55817
0.369935
0.534641
0.328105
0.218301
0.264052
0.256209
0.30719
0.288889
0.496732
0.503268
0.496732
0.210458
0.490196
0.298039
0.552941
0.277124
0.181699
0.447059
0.530719
0.545098
0.15817
0.186928
0.0810458
0.096732
0.141176
0.108497
0.556863
0.120261
0.177778
0.265359
0.0901961
0.54902
0.266667
0.551634
0.560784
0.0745098
0.0797386
0.559477
0.420915
0.551634
0.560784
0.55817
0.54902
0.386928
0.541176
0.550327
0.551634
0.551634
0.478431
0.551634
0.243137
0.380392
0.555556
0.546405
0.515033
0.554248
0.545098
0.511111
0.555556
0.0862745
0.0901961
0.239216
0.124183
0.075817
0.075817
0.0745098
0.151634
0.457516
0.456209
0.150327
0.202614
0.27451
0.075817
0.0797386
0.169935
0.0771242
0.252288
0.146405
0.129412
0.104575
0.197386
0.16732
0.162092
0.31634
0.128105
0.206536
0.154248
0.477124
0.45098
0.342484
0.466667
0.0928105
0.36732
0.286275
0.236601
0.547712
0.464052
0.275817
0.413072
0.393464
0.103268
0.360784
0.101961
0.146405
0.532026
0.233987
0.269281
0.379085
0.467974
0.135948
0.538562
0.542484
0.541176
0.535948
0.243137
0.350327
0.130719
0.371242
0.542484
0.475817
0.541176
0.477124
0.541176
0.543791
0.465359
0.164706
0.376471
0.415686
0.538562
0.346405
0.550327
0.534641
0.545098
0.420915
0.43268
0.538562
0.54902
0.543791
0.154248
0.48366
0.524183
0.535948
0.31634
0.236601
0.433987
0.168627
0.126797
0.461438
0.452288
0.24183
0.443137
0.147712
0.375163
0.28366
0.075817
0.392157
0.205229
0.406536
0.188235
0.0732026
0.266667
0.355556
0.0993464
0.168627
0.181699
0.0862745
0.410458
0.129412
0.237908
0.543791
0.494118
0.543791
0.541176
0.543791
0.541176
0.543791
0.534641
0.538562
0.416993
0.543791
0.541176
0.301961
0.2
0.545098
0.543791
0.542484
0.546405
0.545098
0.529412
0.529412
0.539869
0.543791
0.537255
0.542484
0.547712
0.543791
0.530719
0.337255
0.547712
0.547712
0.308497
0.326797
0.542484
0.541176
0.52549
0.546405
0.542484
0.318954
0.545098
0.541176
0.539869
0.546405
0.542484
0.0771242
0.0745098
0.461438
0.142484
0.546405
0.418301
0.210458
0.460131
0.164706
0.0784314
0.075817
0.211765
0.0745098
0.215686
0.0732026
0.0771242
0.237908
0.0954248
0.260131
0.273203
0.354248
0.141176
0.282353
0.298039
0.0745098
0.113725
0.179085
0.0705882
0.547712
0.075817
0.52549
0.542484
0.0732026
0.273203
0.343791
0.503268
0.0732026
0.54902
0.546405
0.54902
0.54902
0.54902
0.547712
0.546405
0.54902
0.334641
0.542484
0.439216
0.261438
0.411765
0.205229
0.299346
0.304575
0.156863
0.214379
0.559477
0.355556
0.556863
0.287582
0.55817
0.184314
0.226144
0.435294
0.566013
0.552941
0.101961
0.470588
0.111111
0.402614
0.339869
0.275817
0.34902
0.447059
0.10719
0.220915
0.156863
0.173856
0.118954
0.150327
0.262745
0.364706
0.0732026
0.0954248
0.117647
0.0823529
0.0745098
0.0836601
0.555556
0.256209
0.335948
0.524183
0.473203
0.551634
0.554248
0.526797
0.461438
0.0745098
0.554248
0.551634
0.554248
0.168627
0.550327
0.554248
0.554248
0.547712
0.172549
0.0745098
0.554248
0.0732026
0.52549
0.14902
0.152941
0.216993
0.132026
0.339869
0.146405
0.0745098
0.211765
0.266667
0.130719
0.137255
0.0732026
0.222222
0.0771242
0.0745098
0.168627
0.552941
0.282353
0.189542
0.0745098
0.235294
0.0732026
0.560784
0.0745098
0.193464
0.0745098
0.256209
0.203922
0.47451
0.505882
0.547712
0.14902
0.563399
0.505882
0.179085
0.0745098
0.559477
0.0718954
0.0718954
0.0745098
0.0705882
0.290196
0.0732026
0.0745098
0.0745098
0.309804
0.0732026
0.0745098
0.19085
0.075817
0.100654
0.128105
0.0993464
0.0875817
0.0823529
0.220915
0.0771242
0.192157
0.0718954
0.075817
0.0797386
0.0784314
0.0745098
0.401307
0.0836601
0.0862745
0.075817
0.562092
0.559477
0.560784
0.55817
0.554248
0.562092
0.563399
0.562092
0.151634
0.075817
0.430065
0.0915033
0.563399
0.245752
0.563399
0.176471
0.560784
0.566013
0.560784
0.56732
0.56732
0.566013
0.559477
0.566013
0.564706
0.573856
0.564706
0.0901961
0.375163
0.0836601
0.47451
0.384314
0.568627
0.385621
0.564706
0.471895
0.571242
0.56732
0.237908
0.108497
0.262745
0.449673
0.457516
0.564706
0.271895
0.36732
0.530719
0.164706
0.324183
0.224837
0.162092
0.266667
0.389542
0.096732
0.407843
0.215686
0.132026
0.159477
0.396078
0.112418
0.393464
0.0993464
0.111111
0.105882
0.258824
0.118954
0.43268
0.258824
0.2
0.16732
0.393464
0.428758
0.352941
0.45098
0.454902
0.511111
0.554248
0.410458
0.228758
0.150327
0.481046
0.461438
0.473203
0.334641
0.556863
0.56732
0.56732
0.562092
0.560784
0.568627
0.552941
0.352941
0.547712
0.335948
0.555556
0.521569
0.380392
0.513725
0.54902
0.550327
0.545098
0.563399
0.562092
0.555556
0.533333
0.542484
0.552941
0.453595
0.564706
0.560784
0.172549
0.562092
0.134641
0.448366
0.555556
0.338562
0.364706
0.443137
0.275817
0.334641
0.332026
0.471895
0.426144
0.317647
0.142484
0.40915
0.326797
0.109804
0.288889
0.159477
0.271895
0.335948
0.34902
0.247059
0.317647
0.413072
0.481046
0.121569
0.115033
0.0915033
0.0888889
0.0875817
0.0915033
0.0888889
0.108497
0.0941176
0.096732
0.138562
0.0823529
0.117647
0.0993464
0.108497
0.0954248
0.101961
0.0954248
0.160784
0.0823529
0.211765
0.0836601
0.0954248
0.213072
0.0941176
0.128105
0.104575
0.0915033
0.309804
0.513725
0.0823529
0.105882
0.0941176
0.0915033
0.104575
0.0993464
0.154248
0.0823529
0.456209
0.194771
0.419608
0.286275
0.491503
0.394771
0.147712
0.133333
0.169935
0.156863
0.320261
0.166013
0.228758
0.30719
0.454902
0.380392
0.512418
0.4
0.478431
0.162092
0.143791
0.443137
0.183007
0.247059
0.45098
0.108497
0.260131
0.402614
0.320261
0.466667
0.350327
0.520261
0.0823529
0.0901961
0.0928105
0.10719
0.175163
0.0915033
0.0888889
0.0836601
0.0849673
0.0849673
0.439216
0.175163
0.313725
0.311111
0.547712
0.550327
0.164706
0.0836601
0.0862745
0.0875817
0.109804
0.0849673
0.198693
0.108497
0.0836601
0.0810458
0.359477
0.444444
0.440523
0.554248
0.24183
0.538562
0.491503
0.537255
0.23268
0.171242
0.146405
0.159477
0.406536
0.386928
0.482353
0.465359
0.115033
0.267974
0.189542
0.261438
0.299346
0.555556
0.301961
0.563399
0.278431
0.364706
0.252288
0.169935
0.227451
0.266667
0.134641
0.122876
0.281046
0.171242
0.444444
0.296732
0.0875817
0.363399
0.176471
0.205229
0.133333
0.141176
0.173856
0.203922
0.464052
0.173856
0.291503
0.129412
0.317647
0.197386
0.562092
0.55817
0.545098
0.550327
0.424837
0.554248
0.552941
0.556863
0.449673
0.34902
0.298039
0.373856
0.338562
0.402614
0.360784
0.257516
0.55817
0.55817
0.555556
0.563399
0.566013
0.166013
0.467974
0.559477
0.559477
0.227451
0.112418
0.462745
0.183007
0.139869
0.113725
0.197386
0.330719
0.10719
0.0954248
0.100654
0.104575
0.192157
0.271895
0.471895
0.19085
0.50719
0.180392
0.0849673
0.0915033
0.0993464
0.0915033
0.351634
0.156863
0.562092
0.287582
0.222222
0.311111
0.538562
0.44183
0.413072
0.308497
0.559477
0.482353
0.371242
0.101961
0.211765
0.0928105
0.173856
0.105882
0.104575
0.0928105
0.55817
0.560784
0.381699
0.160784
0.555556
0.555556
0.392157
0.233987
0.560784
0.55817
0.206536
0.47451
0.347712
0.173856
0.233987
0.478431
0.559477
0.389542
0.560784
0.563399
0.562092
0.564706
0.566013
0.563399
0.55817
0.566013
0.568627
0.560784
0.571242
0.562092
0.564706
0.560784
0.443137
0.362092
0.563399
0.56732
0.559477
0.560784
0.562092
0.457516
0.563399
0.436601
0.564706
0.560784
0.560784
0.244444
0.560784
0.559477
0.447059
0.159477
0.556863
0.568627
0.556863
0.560784
0.452288
0.248366
0.355556
0.405229
0.556863
0.501961
0.541176
0.563399
0.462745
0.152941
0.130719
0.0888889
0.512418
0.384314
0.397386
0.286275
0.35817
0.423529
0.444444
0.215686
0.343791
0.335948
0.335948
0.55817
0.436601
0.55817
0.564706
0.564706
0.563399
0.564706
0.560784
0.562092
0.427451
0.559477
0.543791
0.550327
0.55817
0.511111
0.550327
0.55817
0.560784
0.559477
0.563399
0.564706
0.556863
0.55817
0.555556
0.55817
0.55817
0.363399
0.261438
0.547712
0.550327
0.554248
0.517647
0.55817
0.513725
0.189542
0.27451
0.160784
0.386928
0.130719
0.4
0.31634
0.448366
0.226144
0.541176
0.326797
0.396078
0.369935
0.132026
0.124183
0.0784314
0.109804
0.339869
0.0888889
0.223529
0.34902
0.175163
0.132026
0.137255
0.355556
0.193464
0.471895
0.315033
0.34902
0.397386
0.478431
0.194771
0.100654
0.126797
0.100654
0.160784
0.0849673
0.198693
0.138562
0.205229
0.40915
0.359477
0.477124
0.117647
0.233987
0.0797386
0.128105
0.0849673
0.111111
0.109804
0.0836601
0.0862745
0.103268
0.108497
0.0862745
0.30719
0.108497
0.183007
0.11634
0.245752
0.294118
0.103268
0.198693
0.330719
0.403922
0.230065
0.303268
0.447059
0.457516
0.196078
0.25098
0.150327
0.210458
0.213072
0.129412
0.135948
0.111111
0.126797
0.160784
0.0862745
0.291503
0.0888889
0.0862745
0.138562
0.0888889
0.118954
0.113725
0.207843
0.120261
0.096732
0.0993464
0.224837
0.423529
0.101961
0.0901961
0.29281
0.14902
0.14902
0.105882
0.181699
0.143791
0.166013
0.556863
0.11634
0.0954248
0.471895
0.284967
0.369935
0.101961
0.512418
0.430065
0.453595
0.264052
0.482353
0.460131
0.453595
0.490196
0.555556
0.490196
0.152941
0.54902
0.330719
0.185621
0.448366
0.556863
0.305882
0.55817
0.551634
0.48366
0.371242
0.481046
0.545098
0.559477
0.555556
0.554248
0.564706
0.564706
0.545098
0.555556
0.559477
0.55817
0.556863
0.551634
0.554248
0.439216
0.551634
0.539869
0.554248
0.552941
0.55817
0.554248
0.535948
0.559477
0.555556
0.490196
0.224837
0.494118
0.354248
0.405229
0.380392
0.260131
0.541176
0.556863
0.55817
0.552941
0.43268
0.444444
0.541176
0.457516
0.31634
0.545098
0.0915033
0.103268
0.166013
0.369935
0.555556
0.166013
0.556863
0.237908
0.542484
0.555556
0.423529
0.461438
0.535948
0.535948
0.49281
0.397386
0.55817
0.550327
0.556863
0.562092
0.563399
0.556863
0.555556
0.560784
0.554248
0.47451
0.562092
0.160784
0.55817
0.556863
0.55817
0.555556
0.560784
0.556863
0.559477
0.563399
0.55817
0.55817
0.369935
0.143791
0.388235
0.55817
0.554248
0.545098
0.332026
0.543791
0.267974
0.416993
0.330719
0.555556
0.179085
0.146405
0.318954
0.315033
0.0875817
0.104575
0.284967
0.203922
0.2
0.20915
0.301961
0.156863
0.115033
0.184314
0.0862745
0.418301
0.135948
0.117647
0.261438
0.0901961
0.135948
0.386928
0.290196
0.436601
0.339869
0.48366
0.0888889
0.194771
0.0888889
0.180392
0.0862745
0.0915033
0.101961
0.0928105
0.104575
0.0928105
0.105882
0.164706
0.0928105
0.101961
0.104575
0.0875817
0.192157
0.14902
0.179085
0.0875817
0.14902
0.146405
0.0915033
0.160784
0.100654
0.0901961
0.101961
0.185621
0.168627
0.166013
0.0928105
0.0888889
0.194771
0.262745
0.124183
0.0862745
0.120261
0.0915033
0.0915033
0.0875817
0.0993464
0.193464
0.0993464
0.117647
0.134641
0.0980392
0.133333
0.096732
0.0836601
0.0888889
0.0901961
0.150327
0.0888889
0.0941176
0.0888889
0.134641
0.180392
0.0928105
0.0980392
0.0915033
0.172549
0.0928105
0.2
0.152941
0.0915033
0.10719
0.156863
0.143791
0.173856
0.214379
0.126797
0.287582
0.109804
0.104575
0.101961
0.104575
0.104575
0.11634
0.108497
0.168627
0.381699
0.156863
0.126797
0.235294
0.385621
0.196078
0.439216
0.304575
0.294118
0.248366
0.290196
0.164706
0.146405
0.111111
0.111111
0.147712
0.254902
0.117647
0.244444
0.147712
0.219608
0.265359
0.210458
0.218301
0.192157
0.220915
0.202614
0.257516
0.243137
0.24183
0.233987
0.164706
0.224837
0.392157
0.320261
0.181699
0.257516
0.150327
0.223529
0.31634
0.267974
0.235294
0.277124
0.169935
0.346405
0.134641
0.118954
0.120261
0.139869
0.2
0.294118
0.300654
0.135948
0.0901961
0.0980392
0.210458
0.096732
0.198693
0.162092
0.284967
0.188235
0.252288
0.104575
0.159477
0.0915033
0.162092
0.113725
0.096732
0.184314
0.100654
0.0980392
0.109804
0.160784
0.20915
0.388235
0.286275
0.100654
0.196078
0.168627
0.324183
0.0993464
0.0993464
0.0993464
0.100654
0.0954248
0.295425
0.258824
0.169935
0.415686
0.291503
0.326797
0.375163
0.202614
0.394771
0.279739
0.236601
0.315033
0.271895
0.335948
0.0901961
0.278431
0.379085
0.12549
0.240523
0.243137
0.0810458
0.117647
0.24183
0.312418
0.389542
0.313725
0.288889
0.312418
0.254902
0.287582
0.275817
0.188235
0.346405
0.196078
0.317647
0.253595
0.267974
0.313725
0.355556
0.464052
0.296732
0.420915
0.39085
0.332026
0.298039
0.328105
0.326797
0.329412
0.317647
0.324183
0.380392
0.328105
0.394771
0.354248
0.301961
0.332026
0.270588
0.117647
0.328105
0.445752
0.332026
0.347712
0.392157
0.373856
0.360784
0.326797
0.290196
0.266667
0.273203
0.10719
0.185621
0.16732
0.181699
0.152941
0.244444
0.218301
0.181699
0.226144
0.193464
0.223529
0.343791
0.343791
0.435294
0.426144
0.464052
0.47451
0.389542
0.179085
0.112418
0.135948
0.112418
0.104575
0.159477
0.218301
0.121569
0.177778
0.128105
0.169935
0.537255
0.2
0.108497
0.23268
0.206536
0.414379
0.449673
0.203922
0.188235
0.32549
0.488889
0.356863
0.515033
0.500654
0.15817
0.351634
0.368627
0.207843
0.284967
0.299346
0.371242
0.501961
0.494118
0.428758
0.499346
0.328105
0.337255
0.440523
0.352941
0.332026
0.286275
0.294118
0.363399
0.343791
0.122876
0.189542
0.124183
0.108497
0.134641
0.10719
0.19085
0.152941
0.247059
0.0980392
0.118954
0.104575
0.0980392
0.261438
0.16732
0.159477
0.124183
0.218301
0.0928105
0.20915
0.0823529
0.113725
0.0888889
0.0915033
0.0849673
0.111111
0.0928105
0.160784
0.0928105
0.0915033
0.0888889
0.0915033
0.267974
0.0993464
0.0993464
0.19085
0.207843
0.478431
0.278431
0.115033
0.422222
0.146405
0.277124
0.112418
0.275817
0.422222
0.258824
0.198693
0.462745
0.406536
0.380392
0.457516
0.169935
0.313725
0.175163
0.201307
0.262745
0.334641
0.322876
0.282353
0.315033
0.29281
0.226144
0.138562
0.154248
0.183007
0.428758
0.277124
0.452288
0.303268
0.402614
0.392157
0.247059
0.260131
0.177778
0.196078
0.164706
0.117647
0.156863
0.155556
0.296732
0.359477
0.32549
0.418301
0.279739
0.265359
0.236601
0.388235
0.303268
0.422222
0.339869
0.226144
0.347712
0.257516
0.315033
0.469281
0.335948
0.426144
0.406536
0.392157
0.2
0.467974
0.435294
0.437908
0.44183
0.339869
0.288889
0.305882
0.341176
0.2
0.4
0.539869
0.15817
0.150327
0.533333
0.210458
0.288889
0.202614
0.372549
0.313725
0.545098
0.44183
0.551634
0.309804
0.54902
0.551634
0.552941
0.550327
0.509804
0.551634
0.462745
0.542484
0.486275
0.343791
0.401307
0.530719
0.517647
0.478431
0.488889
0.414379
0.39085
0.435294
0.538562
0.550327
0.448366
0.551634
0.511111
0.54902
0.375163
0.294118
0.339869
0.550327
0.460131
0.435294
0.54902
0.546405
0.103268
0.185621
0.324183
0.308497