# vtk DataFile Version 1.0
Unstructured Grid Example
ASCII

DATASET UNSTRUCTURED_GRID
POINTS 4805 float
106 403 0
107 403 0
108 403 0
109 403 0
110 403 0
111 403 0
112 403 0
113 403 0
114 403 0
118 403 0
119 403 0
120 403 0
121 403 0
122 403 0
123 403 0
124 403 0
93 402 0
94 402 0
95 402 0
96 402 0
97 402 0
98 402 0
99 402 0
100 402 0
101 402 0
102 402 0
103 402 0
104 402 0
105 402 0
106 402 0
107 402 0
114 402 0
115 402 0
116 402 0
117 402 0
118 402 0
124 402 0
125 402 0
126 402 0
127 402 0
91 401 0
92 401 0
93 401 0
127 401 0
128 401 0
129 401 0
130 401 0
89 400 0
90 400 0
91 400 0
130 400 0
131 400 0
132 400 0
133 400 0
87 399 0
88 399 0
89 399 0
133 399 0
134 399 0
135 399 0
84 398 0
85 398 0
86 398 0
87 398 0
135 398 0
136 398 0
137 398 0
82 397 0
83 397 0
84 397 0
137 397 0
138 397 0
139 397 0
79 396 0
80 396 0
81 396 0
82 396 0
138 396 0
139 396 0
140 396 0
141 396 0
78 395 0
79 395 0
141 395 0
142 395 0
143 395 0
76 394 0
77 394 0
78 394 0
143 394 0
144 394 0
145 394 0
146 394 0
74 393 0
75 393 0
76 393 0
146 393 0
147 393 0
148 393 0
72 392 0
73 392 0
74 392 0
148 392 0
149 392 0
150 392 0
71 391 0
72 391 0
150 391 0
151 391 0
152 391 0
69 390 0
70 390 0
71 390 0
152 390 0
153 390 0
154 390 0
67 389 0
68 389 0
69 389 0
154 389 0
155 389 0
156 389 0
66 388 0
67 388 0
152 388 0
153 388 0
154 388 0
155 388 0
156 388 0
64 387 0
65 387 0
66 387 0
152 387 0
153 387 0
155 387 0
156 387 0
63 386 0
64 386 0
153 386 0
154 386 0
188 386 0
189 386 0
190 386 0
191 386 0
61 385 0
62 385 0
63 385 0
154 385 0
155 385 0
188 385 0
191 385 0
192 385 0
209 385 0
210 385 0
211 385 0
212 385 0
60 384 0
61 384 0
155 384 0
156 384 0
188 384 0
192 384 0
193 384 0
209 384 0
212 384 0
213 384 0
56 383 0
57 383 0
58 383 0
59 383 0
60 383 0
152 383 0
153 383 0
154 383 0
156 383 0
157 383 0
188 383 0
193 383 0
194 383 0
209 383 0
213 383 0
52 382 0
53 382 0
54 382 0
55 382 0
56 382 0
57 382 0
147 382 0
148 382 0
149 382 0
152 382 0
154 382 0
155 382 0
156 382 0
157 382 0
188 382 0
194 382 0
209 382 0
213 382 0
214 382 0
49 381 0
50 381 0
51 381 0
52 381 0
147 381 0
149 381 0
150 381 0
151 381 0
152 381 0
153 381 0
156 381 0
157 381 0
188 381 0
194 381 0
195 381 0
209 381 0
210 381 0
214 381 0
215 381 0
46 380 0
47 380 0
48 380 0
49 380 0
50 380 0
142 380 0
143 380 0
144 380 0
147 380 0
151 380 0
152 380 0
153 380 0
188 380 0
189 380 0
195 380 0
196 380 0
209 380 0
210 380 0
215 380 0
43 379 0
44 379 0
45 379 0
46 379 0
141 379 0
142 379 0
144 379 0
145 379 0
147 379 0
148 379 0
189 379 0
190 379 0
196 379 0
209 379 0
215 379 0
216 379 0
41 378 0
42 378 0
43 378 0
141 378 0
145 378 0
146 378 0
148 378 0
170 378 0
171 378 0
172 378 0
190 378 0
196 378 0
197 378 0
209 378 0
216 378 0
39 377 0
40 377 0
41 377 0
71 377 0
72 377 0
73 377 0
74 377 0
75 377 0
76 377 0
77 377 0
78 377 0
141 377 0
146 377 0
147 377 0
148 377 0
170 377 0
171 377 0
172 377 0
173 377 0
174 377 0
190 377 0
197 377 0
198 377 0
209 377 0
216 377 0
217 377 0
38 376 0
39 376 0
70 376 0
71 376 0
78 376 0
79 376 0
80 376 0
81 376 0
141 376 0
147 376 0
148 376 0
170 376 0
174 376 0
175 376 0
189 376 0
190 376 0
198 376 0
199 376 0
209 376 0
210 376 0
217 376 0
36 375 0
37 375 0
38 375 0
69 375 0
70 375 0
81 375 0
82 375 0
83 375 0
84 375 0
85 375 0
86 375 0
90 375 0
91 375 0
94 375 0
95 375 0
96 375 0
103 375 0
104 375 0
105 375 0
106 375 0
107 375 0
108 375 0
109 375 0
110 375 0
115 375 0
116 375 0
119 375 0
120 375 0
121 375 0
122 375 0
123 375 0
124 375 0
139 375 0
140 375 0
141 375 0
170 375 0
175 375 0
176 375 0
189 375 0
190 375 0
199 375 0
210 375 0
217 375 0
218 375 0
34 374 0
35 374 0
36 374 0
68 374 0
69 374 0
83 374 0
84 374 0
85 374 0
86 374 0
87 374 0
88 374 0
89 374 0
90 374 0
91 374 0
92 374 0
93 374 0
94 374 0
96 374 0
97 374 0
98 374 0
99 374 0
100 374 0
102 374 0
103 374 0
106 374 0
107 374 0
110 374 0
111 374 0
112 374 0
113 374 0
114 374 0
115 374 0
116 374 0
117 374 0
118 374 0
119 374 0
124 374 0
125 374 0
128 374 0
129 374 0
130 374 0
132 374 0
133 374 0
134 374 0
135 374 0
139 374 0
140 374 0
141 374 0
170 374 0
171 374 0
176 374 0
177 374 0
190 374 0
199 374 0
200 374 0
210 374 0
218 374 0
33 373 0
34 373 0
67 373 0
68 373 0
97 373 0
98 373 0
100 373 0
101 373 0
102 373 0
125 373 0
126 373 0
128 373 0
130 373 0
131 373 0
132 373 0
135 373 0
136 373 0
139 373 0
140 373 0
170 373 0
171 373 0
177 373 0
178 373 0
190 373 0
191 373 0
200 373 0
201 373 0
210 373 0
218 373 0
219 373 0
32 372 0
33 372 0
67 372 0
68 372 0
126 372 0
127 372 0
128 372 0
136 372 0
137 372 0
138 372 0
140 372 0
141 372 0
170 372 0
171 372 0
178 372 0
179 372 0
191 372 0
201 372 0
210 372 0
211 372 0
219 372 0
31 371 0
32 371 0
66 371 0
67 371 0
137 371 0
138 371 0
141 371 0
142 371 0
171 371 0
179 371 0
180 371 0
191 371 0
192 371 0
201 371 0
202 371 0
211 371 0
219 371 0
30 370 0
31 370 0
65 370 0
66 370 0
138 370 0
139 370 0
142 370 0
171 370 0
172 370 0
180 370 0
181 370 0
192 370 0
193 370 0
202 370 0
203 370 0
211 370 0
219 370 0
220 370 0
30 369 0
64 369 0
65 369 0
139 369 0
140 369 0
141 369 0
142 369 0
172 369 0
173 369 0
181 369 0
182 369 0
193 369 0
203 369 0
211 369 0
212 369 0
220 369 0
29 368 0
30 368 0
63 368 0
64 368 0
141 368 0
142 368 0
173 368 0
182 368 0
183 368 0
193 368 0
194 368 0
203 368 0
204 368 0
212 368 0
220 368 0
221 368 0
29 367 0
62 367 0
63 367 0
173 367 0
183 367 0
184 367 0
194 367 0
195 367 0
204 367 0
205 367 0
212 367 0
213 367 0
221 367 0
29 366 0
61 366 0
62 366 0
173 366 0
174 366 0
184 366 0
185 366 0
195 366 0
205 366 0
213 366 0
221 366 0
222 366 0
29 365 0
59 365 0
60 365 0
61 365 0
174 365 0
175 365 0
185 365 0
186 365 0
195 365 0
196 365 0
205 365 0
206 365 0
213 365 0
214 365 0
222 365 0
29 364 0
30 364 0
58 364 0
59 364 0
175 364 0
176 364 0
186 364 0
187 364 0
196 364 0
197 364 0
206 364 0
207 364 0
214 364 0
222 364 0
223 364 0
30 363 0
31 363 0
57 363 0
58 363 0
176 363 0
187 363 0
188 363 0
197 363 0
207 363 0
208 363 0
214 363 0
215 363 0
223 363 0
31 362 0
32 362 0
55 362 0
56 362 0
57 362 0
157 362 0
158 362 0
159 362 0
160 362 0
161 362 0
162 362 0
176 362 0
177 362 0
188 362 0
189 362 0
190 362 0
197 362 0
198 362 0
208 362 0
215 362 0
223 362 0
224 362 0
32 361 0
33 361 0
34 361 0
35 361 0
53 361 0
54 361 0
55 361 0
157 361 0
162 361 0
163 361 0
164 361 0
177 361 0
178 361 0
189 361 0
190 361 0
191 361 0
198 361 0
199 361 0
208 361 0
209 361 0
215 361 0
216 361 0
224 361 0
238 361 0
239 361 0
35 360 0
36 360 0
37 360 0
40 360 0
41 360 0
46 360 0
47 360 0
48 360 0
51 360 0
52 360 0
53 360 0
157 360 0
158 360 0
164 360 0
165 360 0
166 360 0
178 360 0
179 360 0
191 360 0
192 360 0
199 360 0
209 360 0
210 360 0
216 360 0
224 360 0
237 360 0
238 360 0
239 360 0
240 360 0
37 359 0
38 359 0
39 359 0
40 359 0
41 359 0
42 359 0
43 359 0
44 359 0
45 359 0
46 359 0
48 359 0
49 359 0
50 359 0
51 359 0
158 359 0
165 359 0
166 359 0
167 359 0
179 359 0
180 359 0
192 359 0
193 359 0
199 359 0
200 359 0
210 359 0
216 359 0
224 359 0
225 359 0
237 359 0
240 359 0
158 358 0
159 358 0
167 358 0
168 358 0
169 358 0
180 358 0
181 358 0
193 358 0
194 358 0
200 358 0
201 358 0
210 358 0
211 358 0
216 358 0
217 358 0
225 358 0
237 358 0
240 358 0
158 357 0
159 357 0
169 357 0
170 357 0
181 357 0
182 357 0
194 357 0
195 357 0
201 357 0
202 357 0
211 357 0
212 357 0
217 357 0
225 357 0
226 357 0
237 357 0
240 357 0
241 357 0
159 356 0
160 356 0
170 356 0
171 356 0
172 356 0
182 356 0
183 356 0
184 356 0
195 356 0
196 356 0
202 356 0
212 356 0
213 356 0
217 356 0
218 356 0
226 356 0
237 356 0
241 356 0
160 355 0
161 355 0
172 355 0
173 355 0
174 355 0
184 355 0
185 355 0
196 355 0
197 355 0
202 355 0
203 355 0
213 355 0
218 355 0
226 355 0
227 355 0
237 355 0
241 355 0
161 354 0
162 354 0
174 354 0
175 354 0
185 354 0
186 354 0
197 354 0
198 354 0
203 354 0
204 354 0
213 354 0
214 354 0
218 354 0
219 354 0
227 354 0
237 354 0
241 354 0
162 353 0
163 353 0
175 353 0
176 353 0
177 353 0
186 353 0
187 353 0
198 353 0
199 353 0
204 353 0
205 353 0
214 353 0
215 353 0
219 353 0
227 353 0
228 353 0
237 353 0
241 353 0
163 352 0
164 352 0
177 352 0
178 352 0
179 352 0
187 352 0
188 352 0
199 352 0
200 352 0
205 352 0
206 352 0
215 352 0
216 352 0
219 352 0
220 352 0
228 352 0
237 352 0
241 352 0
242 352 0
164 351 0
165 351 0
166 351 0
179 351 0
180 351 0
181 351 0
188 351 0
189 351 0
200 351 0
201 351 0
206 351 0
207 351 0
216 351 0
217 351 0
220 351 0
228 351 0
229 351 0
237 351 0
242 351 0
166 350 0
167 350 0
180 350 0
181 350 0
182 350 0
189 350 0
190 350 0
201 350 0
202 350 0
207 350 0
217 350 0
220 350 0
229 350 0
237 350 0
242 350 0
167 349 0
168 349 0
182 349 0
183 349 0
184 349 0
190 349 0
191 349 0
202 349 0
203 349 0
204 349 0
207 349 0
208 349 0
217 349 0
218 349 0
220 349 0
221 349 0
229 349 0
230 349 0
237 349 0
242 349 0
168 348 0
169 348 0
170 348 0
184 348 0
185 348 0
191 348 0
204 348 0
205 348 0
208 348 0
209 348 0
218 348 0
219 348 0
221 348 0
222 348 0
230 348 0
237 348 0
242 348 0
150 347 0
151 347 0
152 347 0
153 347 0
154 347 0
155 347 0
170 347 0
171 347 0
172 347 0
185 347 0
186 347 0
187 347 0
191 347 0
192 347 0
205 347 0
206 347 0
209 347 0
219 347 0
220 347 0
222 347 0
230 347 0
231 347 0
237 347 0
242 347 0
243 347 0
150 346 0
155 346 0
156 346 0
157 346 0
172 346 0
173 346 0
174 346 0
187 346 0
188 346 0
189 346 0
192 346 0
193 346 0
206 346 0
207 346 0
209 346 0
220 346 0
221 346 0
222 346 0
223 346 0
231 346 0
237 346 0
238 346 0
243 346 0
150 345 0
151 345 0
157 345 0
158 345 0
159 345 0
174 345 0
175 345 0
176 345 0
189 345 0
190 345 0
191 345 0
193 345 0
207 345 0
208 345 0
209 345 0
221 345 0
222 345 0
223 345 0
231 345 0
232 345 0
238 345 0
243 345 0
151 344 0
152 344 0
159 344 0
160 344 0
161 344 0
176 344 0
177 344 0
178 344 0
191 344 0
192 344 0
193 344 0
222 344 0
223 344 0
224 344 0
232 344 0
238 344 0
243 344 0
152 343 0
153 343 0
161 343 0
162 343 0
163 343 0
164 343 0
177 343 0
178 343 0
223 343 0
224 343 0
232 343 0
233 343 0
238 343 0
239 343 0
243 343 0
153 342 0
164 342 0
165 342 0
178 342 0
[...]
CELL_DATA 4805
COLOR_SCALARS lut 1
0.455055
0.44278
0.430305
0.41788
0.405772
0.394259
0.383616
0.374106
0.365961
0.349451
0.349407
0.350844
0.353634
0.357666
0.36284
0.369046
0.525253
0.524778
0.52375
0.52205
0.519562
0.516176
0.511798
0.506347
0.499764
0.492029
0.483159
0.473233
0.462401
0.450867
0.43885
0.362431
0.355686
0.350536
0.347021
0.345124
0.362318
0.368885
0.37615
0.383912
0.514844
0.51585
0.516524
0.377515
0.384833
0.392141
0.399188
0.502357
0.504475
0.506465
0.392396
0.398077
0.403048
0.407162
0.488232
0.491151
0.49409
0.399319
0.401543
0.402883
0.469558
0.472842
0.476313
0.479918
0.394605
0.394195
0.393168
0.453079
0.456579
0.460361
0.384321
0.381907
0.379224
0.433166
0.436277
0.439808
0.443703
0.373358
0.369783
0.366129
0.362555
0.419541
0.422863
0.352572
0.34846
0.344759
0.403499
0.406264
0.409688
0.334349
0.330523
0.3274
0.325114
0.388951
0.390771
0.393418
0.313859
0.312001
0.311289
0.37651
0.377136
0.37868
0.300027
0.300154
0.301724
0.365853
0.366103
0.290614
0.293324
0.297599
0.357318
0.35612
0.355928
0.286751
0.292189
0.299017
0.351941
0.349147
0.347409
0.288469
0.296141
0.304759
0.345504
0.342146
0.26784
0.272684
0.278869
0.286207
0.294464
0.345191
0.340297
0.336382
0.259632
0.264251
0.277193
0.285096
0.341719
0.336356
0.256656
0.262339
0.274363
0.271367
0.269385
0.268447
0.346068
0.339497
0.333715
0.255383
0.261847
0.259916
0.253834
0.253815
0.295305
0.297871
0.301313
0.30578
0.345363
0.338541
0.255517
0.262398
0.246632
0.24029
0.241083
0.279168
0.28943
0.294981
0.368857
0.360947
0.353222
0.34581
0.338842
0.234895
0.239028
0.244158
0.256639
0.263531
0.234518
0.22862
0.230079
0.264133
0.279635
0.390961
0.383942
0.376737
0.369388
0.361966
0.35457
0.226547
0.225285
0.225061
0.230914
0.239934
0.245614
0.251792
0.258239
0.223552
0.218627
0.250248
0.265411
0.272004
0.401153
0.395516
0.389607
0.383442
0.222557
0.221691
0.222754
0.224827
0.227888
0.23187
0.247847
0.253825
0.213692
0.208339
0.210084
0.23754
0.239805
0.258803
0.266537
0.406336
0.402297
0.397979
0.393351
0.388405
0.234998
0.230326
0.226428
0.219574
0.222763
0.225829
0.229712
0.204874
0.202019
0.200703
0.202754
0.226012
0.228207
0.254297
0.406436
0.403748
0.400949
0.397953
0.235896
0.230934
0.223285
0.220625
0.217672
0.217415
0.194258
0.192175
0.194206
0.215636
0.243145
0.25176
0.400805
0.39893
0.39714
0.232632
0.219116
0.21763
0.216925
0.248649
0.245441
0.242266
0.185364
0.186659
0.188615
0.206355
0.241377
0.393893
0.39239
0.391223
0.298521
0.299182
0.300277
0.301759
0.303579
0.305672
0.307954
0.310343
0.230749
0.217698
0.217258
0.217514
0.239098
0.23564
0.232294
0.229115
0.226127
0.179376
0.181758
0.183715
0.198085
0.231923
0.241217
0.38495
0.383894
0.300894
0.301077
0.311803
0.313906
0.315951
0.317912
0.230343
0.218728
0.219138
0.230407
0.216957
0.214195
0.175999
0.174117
0.177472
0.179317
0.190729
0.192649
0.232255
0.377753
0.376168
0.375391
0.305086
0.304889
0.32052
0.322112
0.323773
0.325689
0.328078
0.331157
0.353399
0.361687
0.391481
0.402309
0.413157
0.467178
0.469243
0.469562
0.468106
0.464878
0.459924
0.453337
0.445266
0.390827
0.379105
0.346986
0.33796
0.329978
0.323079
0.317233
0.312335
0.240398
0.235619
0.231474
0.222546
0.20596
0.203493
0.171284
0.169494
0.173616
0.186023
0.224018
0.233768
0.372341
0.369449
0.367733
0.310826
0.310345
0.32809
0.329738
0.33187
0.334711
0.338459
0.343259
0.349196
0.356291
0.364493
0.373674
0.383651
0.394187
0.415917
0.426565
0.436701
0.44604
0.454312
0.466777
0.470657
0.471884
0.468714
0.449128
0.439732
0.429262
0.417999
0.406241
0.39429
0.382423
0.370896
0.359942
0.349773
0.314101
0.309802
0.29938
0.295814
0.291827
0.282263
0.276758
0.270936
0.264966
0.242648
0.238092
0.234165
0.215467
0.211457
0.196187
0.194024
0.165411
0.168583
0.170042
0.180087
0.22574
0.365462
0.362003
0.317804
0.317133
0.431985
0.442183
0.459968
0.467048
0.472651
0.313708
0.309811
0.302787
0.295067
0.290527
0.28549
0.268418
0.262587
0.246625
0.2422
0.209104
0.204989
0.187603
0.185722
0.161779
0.160583
0.165413
0.166645
0.174743
0.218255
0.22824
0.360051
0.355759
0.324926
0.324701
0.315866
0.312135
0.308496
0.268099
0.262494
0.257184
0.247884
0.244087
0.203374
0.199199
0.18011
0.178466
0.157379
0.16239
0.169919
0.172152
0.220753
0.356519
0.351128
0.333411
0.333189
0.269832
0.264479
0.251141
0.247873
0.193997
0.173572
0.172114
0.154497
0.153752
0.158612
0.15948
0.167669
0.213706
0.355308
0.348567
0.342319
0.342171
0.273317
0.268196
0.2559
0.189292
0.185477
0.167844
0.166522
0.151171
0.150767
0.156038
0.156695
0.163608
0.207071
0.216535
0.348567
0.351434
0.351424
0.278149
0.273199
0.268756
0.264872
0.181237
0.177871
0.162791
0.161565
0.148441
0.1536
0.15995
0.162412
0.209754
0.351619
0.343509
0.360593
0.360782
0.278978
0.27462
0.174053
0.158297
0.157143
0.146367
0.146222
0.150918
0.151341
0.158978
0.203374
0.212598
0.348213
0.369676
0.370126
0.170514
0.154282
0.153191
0.144386
0.144459
0.149017
0.149324
0.155938
0.158653
0.206031
0.346736
0.378602
0.379379
0.167184
0.164468
0.150705
0.149687
0.142877
0.14737
0.155802
0.199885
0.208661
0.347257
0.386587
0.387331
0.388499
0.161415
0.159146
0.147568
0.146646
0.141591
0.141828
0.145838
0.146039
0.153367
0.156223
0.202316
0.34984
0.341697
0.394589
0.395858
0.156347
0.15449
0.144907
0.144109
0.140867
0.141244
0.144909
0.145093
0.153974
0.196435
0.20456
0.346217
0.339828
0.402381
0.404222
0.151931
0.142772
0.142131
0.140655
0.144379
0.144597
0.152189
0.155064
0.198494
0.346223
0.341452
0.407806
0.410087
0.412517
0.218664
0.212129
0.206104
0.200597
0.19558
0.191003
0.14952
0.14813
0.141227
0.14077
0.140359
0.140481
0.140968
0.144302
0.153473
0.192952
0.200236
0.349674
0.34636
0.344674
0.344453
0.412083
0.414971
0.417881
0.216521
0.187239
0.18294
0.179014
0.145976
0.144923
0.140339
0.140085
0.139887
0.141258
0.141814
0.144513
0.14473
0.152397
0.15516
0.194544
0.298626
0.30772
0.353798
0.354526
0.35634
0.366368
0.370721
0.394539
0.39912
0.403521
0.415408
0.418994
0.422492
0.214656
0.207199
0.175509
0.171897
0.168572
0.143048
0.142312
0.140131
0.14015
0.142618
0.145392
0.145702
0.1543
0.189447
0.276249
0.284111
0.292849
0.302612
0.367129
0.36953
0.372661
0.376376
0.380548
0.385057
0.389782
0.394612
0.399466
0.404288
0.413664
0.418136
0.422437
0.426583
0.205214
0.168794
0.165502
0.162467
0.140745
0.140319
0.140954
0.141187
0.143967
0.144573
0.146827
0.154025
0.184979
0.190543
0.262982
0.288282
0.203505
0.196112
0.159827
0.157073
0.154514
0.139103
0.138988
0.142601
0.143042
0.146537
0.147133
0.14856
0.148841
0.154376
0.156511
0.186042
0.25061
0.274863
0.202005
0.194387
0.152367
0.150072
0.138181
0.138383
0.145126
0.145761
0.149769
0.150312
0.151098
0.151441
0.157161
0.18227
0.186694
0.23921
0.262429
0.272601
0.192842
0.185898
0.14832
0.146292
0.144445
0.138054
0.138586
0.139242
0.148584
0.149393
0.153674
0.154243
0.154616
0.158533
0.160206
0.182999
0.228834
0.260942
0.184361
0.178151
0.143158
0.141597
0.14024
0.139694
0.140693
0.153029
0.153983
0.157806
0.158256
0.157981
0.161929
0.180137
0.183345
0.219513
0.250337
0.176664
0.171195
0.139428
0.13841
0.141819
0.143189
0.158505
0.159563
0.163224
0.163505
0.162153
0.162271
0.164463
0.165498
0.180671
0.21125
0.240779
0.16979
0.165037
0.137986
0.13735
0.13698
0.145081
0.14685
0.16504
0.16615
0.169345
0.169414
0.167066
0.167055
0.168426
0.178906
0.180871
0.204029
0.232237
0.163742
0.159655
0.137142
0.137233
0.137623
0.149605
0.15179
0.172636
0.173734
0.176155
0.175995
0.172473
0.172257
0.172248
0.172482
0.179383
0.197817
0.224662
0.234905
0.158496
0.155017
0.151988
0.138523
0.139464
0.140709
0.155508
0.158116
0.181264
0.182279
0.183656
0.183278
0.178296
0.177797
0.176746
0.178865
0.179595
0.192587
0.227922
0.15108
0.148525
0.141001
0.142551
0.144396
0.162891
0.165917
0.190876
0.191737
0.191881
0.184454
0.181998
0.179434
0.188316
0.221795
0.147813
0.145692
0.147029
0.149515
0.152243
0.171832
0.175259
0.201417
0.202051
0.20235
0.201532
0.200883
0.192159
0.190869
0.188292
0.187051
0.180304
0.179837
0.184986
0.216489
0.145205
0.143498
0.142079
0.156201
0.159586
0.18238
0.213164
0.213147
0.211543
0.210721
0.199241
0.197471
0.193894
0.192155
0.181133
0.182587
0.211972
0.280857
0.265299
0.250674
0.237066
0.224537
0.213127
0.141988
0.141003
0.140326
0.164581
0.168647
0.172862
0.190292
0.194558
0.22504
0.224705
0.222404
0.206501
0.204195
0.199559
0.183516
0.181911
0.181111
0.208214
0.218141
0.279349
0.211332
0.20111
0.192022
0.14074
0.140585
0.140794
0.179507
0.184358
0.189256
0.20374
0.208364
0.237672
0.237042
0.235207
0.21387
0.211
0.208122
0.205279
0.184759
0.180559
0.18279
0.214631
0.278249
0.262405
0.190719
0.182799
0.175903
0.141864
0.142739
0.144062
0.197656
0.20309
0.208455
0.218826
0.251066
0.250175
0.249117
0.221304
0.217863
0.214432
0.188728
0.186059
0.182622
0.211801
0.26167
0.24675
0.175149
0.169272
0.164236
0.145972
0.148136
0.150837
0.218639
0.224429
0.230056
0.228782
0.224771
0.220784
0.190485
0.183344
0.209639
0.246473
0.232609
0.164015
0.159793
0.15621
0.153178
0.150669
0.153795
0.236288
0.231706
0.196024
0.192369
0.184957
0.186679
0.208138
0.232824
0.153506
0.151026
0.157006
0.161206
0.1983
0.194466
0.188509
0.207287
0.216
0.23361
0.220804
0.151711
0.149726
0.148133
0.146913
0.165149
0.200732
0.191181
0.215079
0.22204
0.210405
0.20005
0.148083
0.147342
0.147019
0.169327
0.175224
0.208018
0.20339
0.194698
0.214762
0.201535
0.148642
0.148929
0.149739
0.151117
0.18015
0.187294
0.210896
0.19906
0.199195
0.215064
0.203378
0.153494
0.155744
0.158689
0.192956
0.219344
0.213985
0.203558
0.215992
0.205482
0.195996
0.187741
0.161769
0.1658
0.170662
0.176389
0.182992
0.198715
0.222527
0.217315
0.208715
0.217547
0.223832
0.18968
0.182441
0.187749
0.195707
0.204507
0.225865
0.214645
0.225042
0.184254
0.177965
0.235189
0.229358
0.221321
0.226836
0.17957
0.174172
0.1697
0.238542
0.232998
0.22871
0.225786
0.229218
0.170978
0.167279
0.241987
0.232914
0.232195
0.235978
0.168361
0.165417
0.163182
0.251642
0.24554
0.240718
0.238417
0.164181
0.162665
0.161784
0.161528
0.16191
0.241438
0.163379
0.164615
0.166578
0.169315
0.245034
0.246851
0.171564
0.175367
0.180058
0.185692
0.249754
0.189006
0.195916
0.203886
0.212957
0.253158
0.217526
0.227991
0.25703
0.256532
0.233358
0.245182
0.258049
0.259591
0.220856
0.210235
0.201029
0.193208
0.18672
0.181495
0.177448
0.264519
0.278571
0.263154
0.247522
0.234027
0.221953
0.182855
0.178975
0.176214
0.174462
0.173614
0.173589
0.174331
0.175809
0.178017
0.180959
0.18465
0.285909
0.301001
0.267289
0.264457
0.264197
0.249253
0.185633
0.189716
0.194568
0.200225
0.20673
0.214132
0.222485
0.231839
0.242231
0.25367
0.309177
0.325142
0.268127
0.266627
0.251601
0.262051
0.274698
0.288293
0.302768
0.31805
0.334061
0.272682
0.268977
0.280286
0.286202
0.254602
0.240886
0.273598
0.278134
0.283377
0.289642
0.296966
0.244428
0.232064
0.221219
0.211919
0.279521
0.275257
0.274234
0.277788
0.294721
0.302581
0.215672
0.207848
0.281839
0.276486
0.301687
0.211898
0.205582
0.290086
0.285612
0.28077
0.302818
0.310686
0.216243
0.209797
0.205032
0.294994
0.291146
0.28652
0.287157
0.313227
0.209287
0.301867
0.298661
0.296584
0.295597
0.317806
0.32565
0.213581
0.210324
0.331476
0.214472
0.212899
0.213059
0.339179
0.346915
0.217016
0.218875
0.355567
0.220785
0.222681
0.365858
0.373405
0.230321
0.226324
0.224361
0.224372
0.226258
0.384299
0.240654
0.234318
0.396541
0.244872
0.409977
0.416298
0.248969
0.241979
0.237141
0.429752
0.4368
0.240402
0.450079
0.243445
0.464022
0.246267
0.242596
0.478446
0.484184
0.244799
0.497811
0.246802
0.244521
0.511515
0.245889
0.245313
0.525072
0.529545
0.246004
0.541631
0.248281
0.246561
0.553099
0.253923
0.249404
0.563692
0.255726
0.57316
0.575492
0.257626
0.582585
0.259662
0.58818
0.261854
0.254448
0.592138
0.255998
0.594395
0.257674
0.250536
0.594976
0.594852
0.251445
0.59304
0.252488
0.589839
0.25373
0.245665
0.585426
0.585427
0.246327
0.579339
0.247413
0.229338
0.233999
0.239483
0.245866
0.253224
0.261631
0.27115
0.281831
0.572425
0.369015
0.369729
0.372749
0.249016
0.240005
0.211452
0.212444
0.214111
0.216473
0.219554
0.223388
0.276352
0.288375
0.564852
0.357107
0.355731
0.359845
0.241442
0.233132
0.212553
0.210072
0.20847
0.207684
0.20767
0.208405
0.2848
0.298194
0.556792
0.345135
0.348415
0.234523
0.226902
0.22058
0.215469
0.211479
0.296552
0.311293
0.548412
0.337972
0.3348
0.338585
0.311565
0.539881
0.334167
0.329181
0.330468
0.260275
0.271832
0.284579
0.298501
0.313564
0.531354
0.333542
0.326963
0.324145
0.221012
0.227283
0.23459
0.242973
0.252469
0.263109
0.527029
0.522967
0.335831
0.327919
0.319661
0.210138
0.213688
0.218244
0.223807
0.519314
0.514834
0.340697
0.331739
0.317016
0.208622
0.210328
0.213123
0.511958
0.358498
0.347746
0.338055
0.316178
0.21144
0.211035
0.211848
0.505057
0.402863
0.390767
0.378892
0.367413
0.356533
0.317074
0.219093
0.216206
0.214705
0.498709
0.41066
0.399418
0.319603
0.226492
0.222252
0.49302
0.428394
0.418266
0.408035
0.323639
0.235276
0.229543
0.488109
0.425468
0.329032
0.238092
0.4841
0.432104
0.424196
0.335605
0.341283
0.247941
0.240694
0.481122
0.473379
0.438076
0.431412
0.348666
0.356368
0.250188
0.479295
0.471022
0.437936
0.364329
0.252199
0.469918
0.443744
0.43934
0.372855
0.254026
0.470173
0.448848
0.445692
0.381737
0.391056
0.255745
0.471886
0.463788
0.453317
0.451404
0.399941
0.257441
0.466499
0.45757
0.457278
0.456578
0.408902
0.259199
0.470857
0.463304
0.457275
0.458964
0.46011
0.460927
0.461369
0.409001
0.417861
0.261098
0.254524
0.256128
0.2631
0.271782
0.28204
0.462295
0.457138
0.458777
0.460856
0.462806
0.418006
0.256713
0.252135
0.250334
0.253762
0.259155
0.28612
0.463504
0.45915
0.455982
0.456695
0.458792
0.461116
0.463572
0.4269
0.254639
0.252107
0.251592
0.25313
0.279209
0.290222
0.463383
0.460888
0.459376
0.458731
0.458844
0.459616
0.460958
0.462786
0.429258
0.435646
0.265642
0.273404
0.28302
0.437782
0.263126
0.269065
0.445951
0.266456
0.453625
0.265703
0.269747
0.460638
0.26875
0.466815
0.271507
0.471996
0.273828
0.476052
0.275565
0.478885
0.276592
0.47484
0.480434
0.276848
0.474708
0.480671
0.276367
0.473243
0.275268
0.280024
0.470513
0.278562
0.4617
0.466653
0.276875
0.453203
0.456376
0.275219
0.2821
0.446535
0.450222
0.280763
0.437234
0.439201
0.27998
0.288835
0.428883
0.287769
0.285999
0.284368
0.282788
0.288852
0.419456
0.420215
0.286633
0.285065
0.283763
0.280573
0.279443
0.278139
0.276597
0.289909
0.410167
0.284205
0.28309
0.277414
0.275889
0.274078
0.272075
0.292223
0.401504
0.400941
0.281868
0.275357
0.273425
0.295978
0.394528
0.392104
0.288141
0.285686
0.283864
0.282585
0.281327
0.281583
0.278649
0.276872
0.275378
0.301314
0.38521
0.383126
0.288376
0.285267
0.28306
0.280562
0.280756
0.281329
0.282213
0.28253
0.281552
0.281324
0.282103
0.29961
0.308325
0.376513
0.286159
0.283022
0.291051
0.293053
0.296508
0.308409
0.372431
0.368595
0.281413
0.307163
0.312187
0.318942
0.36526
0.280411
0.27823
0.359221
0.268718
0.264311
0.277604
0.27655
0.354479
0.252012
0.247816
0.244487
0.269601
0.277541
0.286739
0.276199
0.2763
0.356877
0.351201
0.236594
0.22951
0.227151
0.250773
0.257914
0.275852
0.286792
0.27768
0.276196
0.276132
0.277403
0.355217
0.349544
0.222515
0.213752
0.233896
0.240309
0.277971
0.290699
0.281842
0.278405
0.276559
0.276231
0.277337
0.349646
0.209789
0.201762
0.200493
0.19988
0.199922
0.200626
0.201995
0.224651
0.283959
0.28373
0.279687
0.351621
0.348052
0.202352
0.198401
0.192424
0.216975
0.26527
0.27885
0.28644
0.281647
0.351912
0.350386
0.350933
0.215146
0.207965
0.201712
0.196372
0.191915
0.184248
0.210814
0.261316
0.284414
0.356523
0.358829
0.362949
0.368728
0.375998
0.292278
0.277857
0.264417
0.204311
0.19756
0.17738
0.199112
0.206096
0.245758
0.258873
0.283407
0.382587
0.390825
0.400202
0.41056
0.421751
0.433652
0.446173
0.459245
0.472811
0.486816
0.501204
0.51592
0.530912
0.546134
0.561556
0.57715
0.592897
0.608778
0.624773
0.640864
0.657037
0.673284
0.689598
0.705968
0.722375
0.738784
0.755138
0.771361
0.279065
0.252042
0.240046
0.188275
0.16934
0.171719
0.195297
0.202732
0.244284
0.283376
0.771678
0.787306
0.802575
0.817344
0.831464
0.844787
0.857146
0.868364
0.266805
0.25324
0.229131
0.218598
0.180012
0.164468
0.192715
0.244122
0.284272
0.283561
0.868608
0.877988
0.885796
0.891801
0.895784
0.897554
0.896962
0.893914
0.888405
0.880537
0.870475
0.242307
0.209082
0.199987
0.172674
0.168014
0.160574
0.163606
0.191258
0.199658
0.231925
0.245151
0.286335
0.878257
0.867464
0.854657
0.840079
0.824006
0.806727
0.788513
0.232173
0.191796
0.184087
0.166174
0.161883
0.160964
0.190818
0.199723
0.233521
0.288612
0.289895
0.802987
0.783823
0.763953
0.743644
0.222773
0.177141
0.170745
0.156507
0.148755
0.150229
0.152417
0.159147
0.200692
0.236018
0.293685
0.291712
0.29189
0.739297
0.717686
0.696113
0.67486
0.214055
0.203534
0.164957
0.159792
0.151828
0.148998
0.146229
0.150579
0.158075
0.202431
0.21352
0.225792
0.239251
0.298895
0.29565
0.669217
0.647289
0.626243
0.606407
0.196017
0.155071
0.151059
0.145287
0.143486
0.144344
0.146497
0.149398
0.153105
0.157671
0.216399
0.22915
0.300364
0.59891
0.579255
0.56136
0.18911
0.147314
0.140668
0.139842
0.152902
0.30573
0.302027
0.572375
0.55316
0.535972
0.274391
0.282468
0.182775
0.174882
0.14414
0.138401
0.13786
0.153238
0.199757
0.211108
0.306452
0.528373
0.512132
0.264144
0.169661
0.163158
0.1415
0.139199
0.136383
0.13679
0.154057
0.182757
0.192381
0.203057
0.214829
0.311193
0.306887
0.505185
0.490116
0.24672
0.254957
0.158997
0.137361
0.13606
0.13742
0.139465
0.155296
0.168488
0.176527
0.185546
0.206643
0.310322
0.483917
0.470224
0.238422
0.246988
0.15535
0.150586
0.135976
0.137384
0.139726
0.156876
0.16335
0.170782
0.198958
0.210383
0.308938
0.464912
0.452781
0.223145
0.231519
0.240349
0.147901
0.1442
0.135001
0.135779
0.137687
0.191684
0.202389
0.311516
0.307098
0.448528
0.438103
0.226064
0.235098
0.204497
0.195306
0.186702
0.17874
0.142375
0.139593
0.13439
0.134654
0.136102
0.154478
0.160634
0.194739
0.308667
0.435093
0.22205
0.197718
0.173824
0.167148
0.138506
0.136525
0.135037
0.13409
0.133738
0.134024
0.134986
0.146004
0.15068
0.156196
0.162594
0.169914
0.187404
0.197588
0.305686
0.302564
0.434294
0.424875
0.210367
0.200088
0.191589
0.163361
0.134047
0.133887
0.134358
0.147299
0.152177
0.171976
0.180408
0.189781
0.300194
0.4256
0.418049
0.412941
0.410077
0.199983
0.194025
0.186087
0.160071
0.15514
0.134201
0.134213
0.144358
0.148596
0.173827
0.182354
0.191803
0.297965
0.41114
0.409612
0.409796
0.411338
0.413854
0.416946
0.19081
0.181172
0.152769
0.134664
0.135439
0.145487
0.149848
0.296004
0.416949
0.419447
0.421727
0.423413
0.424189
0.182746
0.176798
0.15076
0.136084
0.146556
0.294403
0.423577
0.423499
0.422257
0.419723
0.415869
0.175682
0.179337
0.172916
0.149064
0.136728
0.147504
0.293203
0.415092
0.409068
0.401878
0.393681
0.384668
0.375055
0.16951
0.181883
0.175444
0.147635
0.137322
0.148273
0.295902
0.292818
0.292394
0.372304
0.361436
0.350436
0.339544
0.32899
0.318982
0.16412
0.177973
0.146429
0.143917
0.137828
0.142004
0.145081
0.148818
0.294902
0.314429
0.304359
0.295158
0.286911
0.279649
0.273358
0.15941
0.174438
0.143138
0.137041
0.138224
0.140002
0.142408
0.294251
0.274406
0.267417
0.261384
0.256252
0.251971
0.248477
0.245702
0.155278
0.171213
0.142482
0.140807
0.137315
0.138511
0.140277
0.293843
0.291377
0.238727
0.235977
0.233831
0.232252
0.231205
0.230661
0.144027
0.151626
0.168231
0.163407
0.140429
0.137526
0.140439
0.293625
0.291242
0.222683
0.22201
0.221842
0.222206
0.223121
0.224605
0.140907
0.165429
0.160981
0.140151
0.139067
0.137031
0.137719
0.138872
0.140534
0.293627
0.215611
0.217122
0.219269
0.222097
0.225646
0.22996
0.235078
0.138111
0.158683
0.139028
0.137287
0.139048
0.140623
0.298928
0.293929
0.224781
0.230272
0.236664
0.243993
0.252282
0.26153
0.135586
0.14271
0.156487
0.139125
0.13765
0.139299
0.299738
0.280576
0.270217
0.260867
0.252458
0.244918
0.250497
0.260218
0.270835
0.282276
0.133295
0.140233
0.154394
0.151431
0.139389
0.138846
0.137922
0.138173
0.139683
0.141029
0.161539
0.166286
0.171637
0.177636
0.20902
0.218854
0.301087
0.28774
0.27679
0.249666
0.24229
0.235623
0.229595
0.224149
0.271129
0.282811
0.131217
0.137955
0.149815
0.147565
0.139427