# vtk DataFile Version 1.0
Unstructured Grid Example
ASCII

DATASET UNSTRUCTURED_GRID
POINTS 787 float
7 27 0
28 23 0
0 52 0
11 98 0
4 122 0
49 215 0
317 284 0
351 513 0
339 231 0
443 191 0
153 170 0
72 167 0
0 15 0
13 12 0
16 14 0
16 1 0
56 52 0
56 93 0
7 30 0
6 16 0
0 57 0
0 163 0
8 96 0
0 345 0
0 368 0
52 226 0
19 192 0
15 185 0
39 106 0
8 155 0
175 323 0
138 231 0
168 348 0
170 378 0
252 513 0
190 379 0
193 370 0
237 349 0
226 355 0
473 150 0
474 160 0
439 192 0
434 194 0
67 190 0
418 134 0
358 126 0
433 142 0
458 136 0
512 129 0
6 10 0
0 2 0
10 22 0
4 100 0
15 26 0
16 46 0
13 24 0
22 22 0
17 17 0
33 1 0
24 30 0
33 18 0
44 39 0
51 95 0
56 68 0
43 95 0
39 97 0
32 39 0
29 134 0
37 109 0
47 123 0
48 105 0
149 183 0
73 178 0
69 163 0
64 142 0
58 152 0
11 148 0
2 136 0
4 134 0
4 115 0
0 116 0
1 112 0
1 139 0
1 144 0
0 158 0
29 190 0
9 189 0
33 190 0
41 196 0
27 202 0
44 202 0
25 210 0
5 203 0
4 200 0
0 419 0
0 314 0
0 480 0
0 511 0
34 230 0
42 232 0
4 218 0
27 214 0
5 213 0
70 376 0
47 236 0
79 395 0
117 402 0
152 513 0
153 390 0
141 376 0
141 372 0
126 373 0
136 225 0
130 204 0
58 231 0
52 234 0
47 212 0
56 196 0
52 202 0
59 202 0
59 191 0
71 189 0
170 273 0
165 293 0
177 267 0
189 287 0
165 341 0
171 347 0
165 311 0
162 343 0
158 337 0
164 360 0
164 351 0
157 360 0
177 513 0
194 383 0
186 364 0
186 353 0
188 351 0
191 348 0
209 360 0
196 355 0
213 365 0
212 368 0
222 364 0
220 370 0
241 356 0
242 352 0
216 351 0
316 252 0
367 227 0
271 298 0
239 342 0
202 349 0
408 210 0
413 203 0
418 200 0
426 206 0
512 222 0
469 178 0
474 179 0
478 165 0
483 162 0
462 162 0
466 161 0
456 164 0
457 178 0
463 185 0
441 181 0
445 178 0
227 191 0
155 182 0
165 172 0
444 155 0
445 164 0
452 175 0
446 153 0
399 130 0
348 132 0
313 135 0
293 139 0
300 1 0
219 1 0
344 129 0
354 128 0
384 127 0
414 1 0
434 124 0
417 130 0
432 137 0
425 130 0
445 134 0
512 144 0
512 82 0
512 24 0
512 9 0
0 5 0
3 12 0
7 1 0
9 11 0
7 19 0
3 18 0
1 17 0
0 12 0
0 19 0
4 22 0
0 35 0
0 44 0
0 72 0
14 43 0
10 40 0
9 37 0
6 24 0
9 34 0
17 33 0
15 30 0
19 37 0
18 51 0
26 41 0
22 53 0
23 41 0
20 40 0
26 32 0
28 29 0
28 26 0
23 27 0
19 19 0
22 16 0
24 18 0
24 1 0
27 19 0
25 15 0
29 15 0
38 1 0
29 32 0
29 40 0
43 42 0
45 36 0
43 20 0
39 19 0
45 1 0
73 1 0
58 1 0
93 1 0
112 1 0
54 33 0
56 29 0
53 25 0
49 23 0
47 32 0
57 61 0
61 53 0
61 60 0
65 57 0
55 84 0
56 72 0
54 65 0
53 79 0
51 73 0
47 52 0
41 52 0
50 51 0
39 48 0
44 47 0
36 45 0
34 42 0
33 52 0
37 52 0
29 54 0
28 104 0
34 100 0
28 107 0
32 110 0
41 108 0
37 115 0
35 103 0
37 100 0
38 92 0
47 95 0
51 85 0
53 90 0
58 97 0
51 122 0
50 110 0
50 116 0
45 104 0
44 107 0
61 136 0
58 134 0
65 135 0
69 138 0
64 148 0
67 160 0
64 158 0
61 156 0
60 149 0
53 161 0
39 153 0
39 139 0
49 127 0
51 132 0
35 131 0
32 128 0
37 136 0
32 138 0
36 141 0
10 145 0
12 152 0
8 159 0
8 152 0
10 136 0
8 143 0
11 140 0
13 145 0
14 142 0
26 114 0
24 110 0
23 106 0
25 102 0
10 102 0
21 101 0
9 105 0
9 108 0
7 135 0
2 119 0
3 109 0
6 106 0
5 103 0
0 102 0
0 87 0
1 106 0
0 109 0
0 123 0
0 142 0
0 133 0
3 128 0
5 140 0
6 147 0
4 156 0
5 152 0
1 147 0
0 154 0
0 149 0
0 179 0
0 169 0
6 188 0
0 189 0
20 187 0
14 188 0
7 185 0
18 180 0
13 163 0
22 182 0
27 184 0
30 180 0
33 183 0
31 187 0
34 187 0
28 187 0
23 188 0
23 185 0
30 196 0
30 193 0
40 200 0
41 193 0
37 201 0
41 203 0
35 204 0
29 200 0
25 206 0
4 206 0
18 199 0
21 197 0
22 192 0
18 196 0
0 192 0
4 191 0
4 194 0
0 195 0
4 197 0
0 217 0
0 222 0
0 209 0
5 209 0
0 259 0
0 359 0
0 244 0
0 232 0
0 282 0
0 389 0
0 444 0
0 492 0
0 501 0
6 513 0
12 513 0
0 464 0
0 402 0
0 376 0
30 370 0
30 363 0
19 513 0
29 513 0
41 378 0
35 374 0
38 359 0
40 228 0
37 227 0
39 224 0
41 219 0
36 218 0
34 221 0
32 225 0
32 211 0
31 216 0
34 207 0
38 216 0
41 216 0
57 227 0
52 230 0
62 229 0
64 233 0
62 237 0
58 235 0
57 363 0
51 359 0
44 359 0
53 382 0
47 380 0
63 386 0
47 513 0
67 513 0
73 392 0
68 389 0
67 371 0
63 367 0
94 402 0
86 398 0
102 402 0
92 513 0
118 513 0
110 403 0
125 402 0
131 400 0
137 398 0
116 375 0
144 380 0
107 375 0
86 375 0
78 376 0
100 374 0
92 374 0
135 373 0
140 235 0
144 238 0
61 225 0
57 222 0
132 217 0
133 210 0
52 197 0
55 200 0
52 215 0
55 218 0
51 221 0
48 226 0
50 224 0
46 219 0
43 223 0
43 211 0
43 198 0
44 207 0
44 217 0
46 209 0
56 193 0
51 193 0
51 189 0
43 191 0
48 186 0
45 188 0
51 166 0
55 167 0
57 164 0
70 172 0
59 168 0
74 172 0
70 176 0
62 189 0
136 189 0
134 196 0
78 189 0
142 183 0
76 181 0
162 308 0
162 315 0
158 319 0
154 322 0
163 304 0
171 323 0
163 297 0
167 287 0
170 269 0
172 277 0
173 265 0
175 261 0
178 280 0
185 282 0
181 322 0
181 288 0
177 287 0
172 285 0
175 328 0
172 329 0
176 337 0
179 327 0
193 345 0
181 338 0
178 342 0
174 345 0
173 338 0
163 333 0
169 340 0
167 331 0
168 324 0
164 324 0
158 325 0
160 334 0
155 340 0
151 345 0
159 345 0
155 347 0
159 356 0
162 354 0
174 354 0
176 364 0
177 361 0
171 356 0
167 358 0
160 362 0
148 376 0
149 381 0
154 385 0
144 394 0
156 381 0
175 375 0
171 374 0
172 370 0
174 366 0
184 366 0
181 370 0
178 372 0
188 383 0
197 378 0
191 386 0
190 374 0
195 366 0
197 364 0
194 357 0
192 359 0
190 361 0
181 358 0
183 356 0
177 352 0
180 351 0
184 348 0
199 353 0
187 346 0
201 357 0
203 355 0
214 354 0
217 356 0
215 363 0
216 360 0
211 358 0
206 364 0
199 359 0
204 367 0
201 371 0
199 375 0
209 382 0
215 380 0
213 384 0
209 377 0
217 375 0
211 371 0
427 513 0
224 513 0
459 513 0
391 513 0
497 513 0
509 513 0
504 513 0
474 513 0
488 513 0
512 508 0
512 491 0
512 472 0
295 513 0
512 499 0
237 354 0
224 359 0
238 360 0
512 441 0
512 385 0
244 341 0
242 348 0
245 337 0
245 333 0
237 335 0
241 333 0
240 338 0
235 340 0
238 345 0
228 351 0
220 352 0
219 347 0
207 350 0
209 347 0
205 347 0
222 344 0
231 346 0
233 343 0
250 320 0
261 321 0
248 325 0
247 329 0
253 316 0
264 316 0
267 308 0
273 284 0
273 274 0
277 266 0
287 266 0
293 269 0
298 274 0
303 279 0
311 282 0
512 304 0
318 275 0
319 268 0
318 261 0
512 192 0
512 252 0
458 187 0
451 188 0
460 178 0
454 178 0
467 185 0
471 183 0
512 182 0
512 170 0
465 170 0
469 169 0
472 168 0
453 165 0
459 162 0
462 171 0
457 173 0
464 177 0
448 177 0
450 165 0
448 162 0
451 161 0
447 166 0
444 168 0
441 169 0
436 169 0
431 174 0
429 195 0
427 200 0
431 200 0
447 190 0
451 179 0
438 204 0
442 202 0
436 200 0
434 205 0
430 205 0
378 222 0
383 216 0
390 214 0
398 211 0
318 231 0
352 229 0
327 231 0
311 233 0
312 243 0
175 253 0
178 245 0
161 247 0
155 244 0
151 242 0
146 242 0
167 244 0
171 242 0
176 240 0
256 195 0
246 194 0
237 193 0
211 193 0
151 175 0
158 170 0
172 175 0
190 184 0
257 182 0
260 165 0
263 161 0
257 169 0
261 177 0
260 186 0
420 207 0
413 208 0
422 201 0
424 197 0
265 193 0
439 152 0
439 156 0
436 141 0
439 138 0
427 141 0
435 133 0
428 145 0
436 154 0
433 159 0
280 144 0
286 143 0
272 150 0
268 157 0
305 137 0
300 138 0
321 132 0
334 131 0
421 131 0
369 128 0
364 127 0
339 129 0
327 130 0
256 1 0
168 1 0
333 1 0
372 125 0
375 1 0
395 123 0
379 124 0
389 126 0
403 131 0
409 127 0
437 130 0
431 127 0
419 127 0
412 124 0
418 122 0
451 131 0
442 136 0
453 1 0
457 131 0
458 147 0
455 139 0
452 141 0
450 143 0
447 144 0
444 148 0
441 149 0
449 151 0
442 157 0
457 158 0
453 159 0
459 156 0
451 149 0
455 148 0
464 153 0
460 145 0
462 155 0
469 160 0
470 160 0
478 160 0
512 156 0
469 151 0
476 147 0
473 144 0
512 113 0
469 144 0
465 144 0
462 131 0
495 1 0
483 1 0
510 1 0
512 61 0
512 43 0

CELLS 1461 5844
3 214 210 211
3 205 201 200
3 244 253 243
3 310 4 315
3 3 22 277
3 265 61 236
3 124 685 686
3 14 13 15
3 550 35 552
3 658 660 652
3 679 155 154
3 420 419 454
3 635 150 676
3 250 251 252
3 627 151 624
3 721 714 762
3 351 297 354
3 277 208 268
3 19 200 201
3 199 13 19
3 206 205 0
3 229 231 14
3 53 215 0
3 726 181 179
3 290 73 292
3 231 227 14
3 250 252 63
3 274 68 273
3 204 202 201
3 0 51 55
3 202 19 201
3 200 14 57
3 54 217 2
3 81 79 80
3 320 3 277
3 405 463 99
3 217 219 208
3 335 4 310
3 528 133 526
3 362 85 87
3 686 125 504
3 85 362 373
3 423 434 426
3 343 350 349
3 363 365 88
3 289 290 74
3 338 29 308
3 21 338 308
3 315 67 310
3 555 138 141
3 456 420 488
3 636 637 150
3 421 95 388
3 146 6 7
3 541 537 536
3 617 613 615
3 448 105 431
3 551 108 33
3 32 534 132
3 546 532 533
3 498 123 497
3 599 579 578
3 137 561 562
3 569 145 142
3 142 143 572
3 192 162 776
3 668 666 42
3 162 160 161
3 168 9 41
3 666 665 42
3 672 641 645
3 681 8 178
3 460 118 119
3 698 10 699
3 717 44 730
3 655 652 165
3 739 45 737
3 226 228 56
3 189 46 717
3 653 763 765
3 781 779 780
3 651 40 161
3 749 186 752
3 197 49 19
3 198 15 199
3 198 49 196
3 13 14 200
3 225 1 224
3 22 52 329
3 22 3 319
3 55 53 0
3 218 235 265
3 207 209 2
3 261 61 245
3 200 57 51
3 226 56 53
3 55 57 226
3 226 227 228
3 51 57 55
3 230 60 1
3 733 45 183
3 225 59 214
3 234 237 66
3 239 238 249
3 239 234 223
3 232 233 60
3 259 261 250
3 281 70 62
3 208 277 22
3 255 63 252
3 208 219 268
3 279 257 254
3 278 70 285
3 278 285 64
3 275 68 272
3 209 210 216
3 224 1 60
3 274 302 315
3 478 297 296
3 275 269 270
3 481 11 483
3 28 285 286
3 281 62 17
3 286 70 283
3 285 65 64
3 490 72 483
3 489 483 11
3 483 72 484
3 484 485 482
3 75 298 295
3 281 17 254
3 291 74 290
3 283 70 281
3 350 352 347
3 288 299 282
3 336 323 310
3 297 75 296
3 323 77 78
3 324 79 4
3 323 78 335
3 77 334 78
3 22 319 52
3 316 317 271
3 328 52 327
3 331 330 325
3 327 319 321
3 340 342 83
3 334 77 82
3 339 340 337
3 333 336 83
3 333 82 336
3 347 359 373
3 11 481 73
3 349 86 345
3 374 26 372
3 472 120 117
3 469 90 118
3 73 482 292
3 406 407 405
3 422 115 114
3 371 92 93
3 361 373 362
3 118 460 116
3 371 89 369
3 366 363 90
3 86 348 374
3 371 379 374
3 345 86 376
3 100 102 101
3 93 370 382
3 91 102 383
3 396 402 94
3 439 440 441
3 384 98 104
3 466 464 463
3 98 99 104
3 465 466 408
3 386 387 98
3 383 92 371
3 100 101 411
3 372 89 371
3 101 102 91
3 370 93 92
3 448 103 433
3 418 115 104
3 453 31 112
3 440 106 441
3 135 549 35
3 435 449 437
3 549 33 542
3 392 391 400
3 443 540 134
3 537 109 110
3 111 451 443
3 537 133 536
3 534 32 531
3 451 526 110
3 421 422 420
3 451 109 445
3 457 112 456
[...]
CELL_DATA 1461
COLOR_SCALARS ColorSpace 1
0.222222
0.288889
0.447059
0.35817
0.379085
0.288889
0.300654
0.346405
0.30719
0.330719
0.337255
0.27451
0.428758
0.269281
0.275817
0.290196
0.260131
0.220915
0.368627
0.273203
0.179085
0.368627
0.355556
0.354248
0.273203
0.31634
0.254902
0.275817
0.146405
0.383007
0.248366
0.326797
0.172549
0.288889
0.31634
0.311111
0.154248
0.364706
0.355556
0.324183
0.334641
0.313725
0.277124
0.24183
0.287582
0.260131
0.267974
0.197386
0.299346
0.312418
0.368627
0.273203
0.50719
0.362092
0.341176
0.27451
0.386928
0.394771
0.355556
0.275817
0.291503
0.342484
0.326797
0.330719
0.322876
0.407843
0.309804
0.262745
0.352941
0.321569
0.394771
0.335948
0.356863
0.317647
0.253595
0.269281
0.47451
0.298039
0.295425
0.343791
0.28366
0.32549
0.473203
0.334641
0.415686
0.440523
0.333333
0.29281
0.228758
0.364706
0.337255
0.338562
0.185621
0.334641
0.380392
0.248366
0.279739
0.364706
0.359477
0.281046
0.252288
0.239216
0.305882
0.337255
0.328105
0.335948
0.254902
0.345098
0.290196
0.312418
0.172549
0.339869
0.366013
0.413072
0.305882
0.247059
0.275817
0.352941
0.25098
0.301961
0.332026
0.315033
0.30719
0.312418
0.368627
0.237908
0.322876
0.207843
0.267974
0.326797
0.330719
0.312418
0.300654
0.324183
0.248366
0.376471
0.269281
0.333333
0.332026
0.328105
0.324183
0.309804
0.284967
0.160784
0.389542
0.313725
0.298039
0.317647
0.359477
0.299346
0.324183
0.253595
0.269281
0.351634
0.294118
0.265359
0.318954
0.215686
0.352941
0.375163
0.305882
0.309804
0.290196
0.379085
0.339869
0.407843
0.343791
0.301961
0.309804
0.143791
0.282353
0.52549
0.433987
0.407843
0.28366
0.346405
0.300654
0.482353
0.335948
0.35817
0.322876
0.300654
0.218301
0.258824
0.321569
0.418301
0.36732
0.338562
0.34902
0.364706
0.533333
0.44183
0.281046
0.363399
0.341176
0.32549
0.326797
0.39085
0.252288
0.389542
0.39085
0.333333
0.372549
0.324183
0.304575
0.372549
0.29281
0.315033
0.364706
0.295425
0.224837
0.266667
0.218301
0.35817
0.277124
0.341176
0.366013
0.345098
0.286275
0.362092
0.333333
0.279739
0.295425
0.383007
0.308497
0.269281
0.287582
0.228758
0.322876
0.262745
0.31634
0.279739
0.282353
0.312418
0.341176
0.36732
0.31634
0.311111
0.345098
0.335948
0.362092
0.363399
0.339869
0.445752
0.326797
0.437908
0.32549
0.312418
0.320261
0.262745
0.35817
0.330719
0.333333
0.321569
0.296732
0.32549
0.337255
0.330719
0.230065
0.223529
0.31634
0.364706
0.228758
0.334641
0.326797
0.386928
0.317647
0.486275
0.284967
0.350327
0.231373
0.256209
0.40915
0.424837
0.298039
0.318954
0.347712
0.215686
0.271895
0.294118
0.305882
0.264052
0.304575
0.345098
0.346405
0.284967
0.290196
0.422222
0.326797
0.385621
0.35817
0.262745
0.346405
0.305882
0.290196
0.34902
0.281046
0.449673
0.313725
0.32549
0.296732
0.32549
0.300654
0.342484
0.295425
0.328105
0.364706
0.341176
0.351634
0.287582
0.315033
0.308497
0.355556
0.351634
0.304575
0.312418
0.271895
0.352941
0.313725
0.265359
0.311111
0.350327
0.298039
0.32549
0.32549
0.296732
0.281046
0.381699
0.269281
0.308497
0.498039
0.406536
0.504575
0.328105
0.332026
0.27451
0.372549
0.262745
0.258824
0.477124
0.386928
0.342484
0.282353
0.377778
0.254902
0.286275
0.258824
0.343791
0.265359
0.281046
0.318954
0.317647
0.311111
0.334641
0.469281
0.467974
0.543791
0.335948
0.385621
0.313725
0.27451
0.32549
0.364706
0.245752
0.291503
0.40915
0.111111
0.219608
0.458824
0.121569
0.179085
0.159477
0.147712
0.265359
0.122876
0.249673
0.210458
0.192157
0.299346
0.162092
0.159477
0.30719
0.347712
0.334641
0.172549
0.341176
0.301961
0.279739
0.329412
0.386928
0.275817
0.10719
0.254902
0.294118
0.311111
0.252288
0.27451
0.32549
0.245752
0.356863
0.355556
0.309804
0.300654
0.324183
0.264052
0.252288
0.252288
0.245752
0.256209
0.313725
0.30719
0.281046
0.457516
0.338562
0.34902
0.473203
0.299346
0.373856
0.366013
0.288889
0.471895
0.260131
0.342484
0.31634
0.355556
0.295425
0.222222
0.364706
0.31634
0.298039
0.389542
0.343791
0.333333
0.467974
0.384314
0.342484
0.364706
0.473203
0.287582
0.30719
0.326797
0.299346
0.45098
0.332026
0.482353
0.30719
0.39085
0.376471
0.342484
0.352941
0.227451
0.445752
0.243137
0.284967
0.220915
0.329412
0.281046
0.244444
0.34902
0.403922
0.363399
0.369935
0.286275
0.333333
0.356863
0.423529
0.257516
0.205229
0.220915
0.342484
0.218301
0.318954
0.257516
0.295425
0.339869
0.267974
0.295425
0.282353
0.318954
0.351634
0.341176
0.355556
0.304575
0.211765
0.301961
0.224837
0.243137
0.24183
0.346405
0.270588
0.351634
0.28366
0.320261
0.298039
0.315033
0.342484
0.233987
0.230065
0.324183
0.32549
0.321569
0.294118
0.294118
0.334641
0.298039
0.262745
0.339869
0.372549
0.284967
0.320261
0.261438
0.335948
0.35817
0.223529
0.202614
0.25098
0.240523
0.244444
0.248366
0.205229
0.350327
0.30719
0.260131
0.25098
0.282353
0.281046
0.338562
0.224837
0.330719
0.224837
0.35817
0.288889
0.351634
0.300654
0.256209
0.261438
0.230065
0.213072
0.207843
0.24183
0.291503
0.279739
0.269281
0.219608
0.308497
0.332026
0.29281
0.219608
0.215686
0.270588
0.27451
0.317647
0.254902
0.313725
0.334641
0.309804
0.333333
0.360784
0.294118
0.286275
0.288889
0.222222
0.305882
0.364706
0.328105
0.334641
0.216993
0.291503
0.343791
0.345098
0.332026
0.341176
0.35817
0.342484
0.273203
0.321569
0.301961
0.228758
0.393464
0.24183
0.299346
0.332026
0.309804
0.337255
0.31634
0.34902
0.351634
0.355556
0.301961
0.290196
0.300654
0.286275
0.322876
0.312418
0.332026
0.315033
0.360784
0.383007
0.324183
0.295425
0.335948
0.326797
0.278431
0.271895
0.315033
0.237908
0.11634
0.194771
0.312418
0.243137
0.312418
0.287582
0.313725
0.330719
0.318954
0.317647
0.313725
0.328105
0.32549
0.328105
0.383007
0.326797
0.343791
0.35817
0.411765
0.312418
0.345098
0.296732
0.197386
0.152941
0.254902
0.172549
0.207843
0.335948
0.291503
0.392157
0.342484
0.176471
0.346405
0.287582
0.282353
0.214379
0.265359
0.295425
0.260131
0.337255
0.322876
0.321569
0.337255
0.341176
0.29281
0.352941
0.282353
0.329412
0.28366
0.315033
0.334641
0.322876
0.345098
0.332026
0.324183
0.261438
0.277124
0.320261
0.271895
0.305882
0.236601
0.277124
0.197386
0.34902
0.322876
0.317647
0.347712
0.337255
0.341176
0.347712
0.303268
0.318954
0.19085
0.24183
0.141176
0.343791
0.4
0.237908
0.303268
0.264052
0.282353
0.277124
0.355556
0.205229
0.156863
0.346405
0.203922
0.300654
0.185621
0.213072
0.320261
0.173856
0.299346
0.126797
0.248366
0.352941
0.478431
0.449673
0.437908
0.447059
0.471895
0.436601
0.490196
0.490196
0.538562
0.533333
0.533333
0.539869
0.444444
0.541176
0.34902
0.504575
0.503268
0.473203
0.471895
0.301961
0.439216
0.532026
0.534641
0.496732
0.371242
0.482353
0.460131
0.345098
0.384314
0.364706
0.311111
0.376471
0.303268
0.312418
0.369935
0.317647
0.308497
0.295425
0.341176
0.332026
0.343791
0.368627
0.423529
0.328105
0.315033
0.355556
0.355556
0.333333
0.311111
0.350327
0.355556
0.342484
0.291503
0.342484
0.27451
0.269281
0.305882
0.328105
0.321569
0.317647
0.286275
0.379085
0.311111
0.35817
0.401307
0.305882
0.296732
0.356863
0.427451
0.321569
0.376471
0.470588
0.328105
0.449673
0.384314
0.364706
0.385621
0.537255
0.538562
0.458824
0.503268
0.30719
0.466667
0.313725
0.260131
0.282353
0.249673
0.443137
0.488889
0.329412
0.443137
0.347712
0.318954
0.494118
0.45098
0.500654
0.339869
0.473203
0.288889
0.405229
0.287582
0.512418
0.366013
0.27451
0.277124
0.30719
0.347712
0.294118
0.347712
0.269281
0.254902
0.309804
0.394771
0.282353
0.253595
0.313725
0.260131
0.30719
0.287582
0.414379
0.447059
0.385621
0.386928
0.362092
0.309804
0.369935
0.270588
0.411765
0.380392
0.34902
0.287582
0.265359
0.351634
0.337255
0.32549
0.305882
0.235294
0.299346
0.304575
0.305882
0.298039
0.333333
0.248366
0.329412
0.278431
0.303268
0.308497
0.303268
0.284967
0.332026
0.315033
0.301961
0.294118
0.288889
0.318954
0.343791
0.295425
0.266667
0.288889
0.301961
0.28366
0.330719
0.362092
0.278431
0.282353
0.312418
0.304575
0.304575
0.330719
0.380392
0.341176
0.32549
0.320261
0.372549
0.262745
0.264052
0.256209
0.284967
0.288889
0.258824
0.301961
0.354248
0.326797
0.201307
0.354248
0.313725
0.368627
0.273203
0.324183
0.368627
0.282353
0.431373
0.231373
0.317647
0.342484
0.309804
0.313725
0.299346
0.303268
0.299346
0.346405
0.286275
0.318954
0.261438
0.371242
0.258824
0.312418
0.343791
0.28366
0.359477
0.447059
0.386928
0.277124
0.431373
0.339869
0.364706
0.315033
0.369935
0.288889
0.287582
0.309804
0.341176
0.332026
0.334641
0.277124
0.359477
0.282353
0.219608
0.260131
0.264052
0.270588
0.341176
0.397386
0.315033
0.342484
0.324183
0.359477
0.341176
0.335948
0.31634
0.337255
0.294118
0.275817
0.313725
0.311111
0.339869
0.31634
0.332026
0.335948
0.326797
0.296732
0.309804
0.324183
0.332026
0.287582
0.330719
0.296732
0.347712
0.300654
0.333333
0.347712
0.34902
0.350327
0.338562
0.342484
0.299346
0.288889
0.262745
0.345098
0.371242
0.383007
0.335948
0.342484
0.351634
0.304575
0.347712
0.318954
0.304575
0.29281
0.264052
0.265359
0.311111
0.237908
0.334641
0.315033
0.296732
0.275817
0.30719
0.245752
0.342484
0.304575
0.335948
0.298039
0.333333
0.343791
0.403922
0.350327
0.350327
0.311111
0.290196
0.346405
0.29281
0.373856
0.278431
0.31634
0.278431
0.279739
0.231373
0.282353
0.269281
0.282353
0.258824
0.275817
0.383007
0.401307
0.247059
0.287582
0.366013
0.423529
0.295425
0.309804
0.243137
0.269281
0.294118
0.317647
0.350327
0.295425
0.287582
0.270588
0.315033
0.284967
0.321569
0.279739
0.284967
0.31634
0.28366
0.360784
0.334641
0.320261
0.334641
0.308497
0.339869
0.322876
0.294118
0.311111
0.28366
0.271895
0.326797
0.299346
0.354248
0.313725
0.338562
0.219608
0.303268
0.249673
0.275817
0.295425
0.29281
0.359477
0.29281
0.298039
0.333333
0.32549
0.207843
0.253595
0.25098
0.301961
0.35817
0.296732
0.356863
0.385621
0.290196
0.352941
0.282353
0.486275
0.24183
0.321569
0.300654
0.296732
0.30719
0.303268
0.444444
0.486275
0.541176
0.440523
0.530719
0.533333
0.532026
0.537255
0.532026
0.530719
0.532026
0.453595
0.534641
0.533333
0.239216
0.337255
0.278431
0.291503
0.392157
0.422222
0.530719
0.45098
0.539869
0.347712
0.262745
0.262745
0.284967
0.261438
0.308497
0.267974
0.338562
0.324183
0.264052
0.253595
0.273203
0.282353
0.308497
0.270588
0.296732
0.313725
0.338562
0.215686
0.226144
0.203922
0.252288
0.245752
0.305882
0.249673
0.322876
0.30719
0.269281
0.321569
0.295425
0.317647
0.284967
0.328105
0.301961
0.290196
0.339869
0.205229
0.324183
0.343791
0.330719
0.286275
0.290196
0.322876
0.351634
0.224837
0.249673
0.284967
0.356863
0.271895
0.260131
0.286275
0.346405
0.311111
0.423529
0.267974
0.359477
0.311111
0.296732
0.418301
0.40915
0.410458
0.28366
0.362092
0.401307
0.410458
0.360784
0.445752
0.335948
0.278431
0.312418
0.25098
0.281046
0.253595
0.43268
0.461438
0.475817
0.402614
0.322876
0.322876
0.330719
0.29281
0.290196
0.324183
0.308497
0.351634
0.320261
0.359477
0.481046
0.469281
0.471895
0.267974
0.284967
0.315033
0.287582
0.311111
0.298039
0.291503
0.373856
0.305882
0.287582
0.284967
0.28366
0.286275
0.287582
0.284967
0.309804
0.28366
0.282353
0.304575
0.36732
0.312418
0.332026
0.287582
0.31634
0.305882
0.305882
0.303268
0.337255
0.299346
0.347712
0.29281
0.322876
0.321569
0.252288
0.267974
0.296732
0.311111
0.29281
0.295425
0.350327
0.372549
0.375163
0.275817
0.30719
0.326797
0.422222
0.440523
0.469281
0.373856
0.300654
0.51634
0.368627
0.407843
0.343791
0.398693
0.464052
0.368627
0.278431
0.435294
0.350327
0.401307
0.326797
0.299346
0.301961
0.324183
0.267974
0.322876
0.333333
0.287582
0.369935
0.332026
0.290196
0.371242
0.305882
0.227451
0.253595
0.380392
0.415686
0.380392
0.40915
0.419608
0.398693
0.386928
0.355556
0.346405
0.334641
0.345098
0.308497
0.380392
0.315033
0.347712
0.338562
0.295425
0.290196
0.254902
0.303268
0.258824
0.223529
0.333333
0.34902
0.356863
0.368627
0.296732
0.39085
0.270588
0.29281
0.311111
0.281046
0.266667
0.299346
0.329412
0.261438
0.299346
0.341176
0.290196
0.389542
0.305882
0.354248
0.376471
0.338562
0.346405
0.30719
0.335948
0.337255
0.288889
0.343791
0.253595
0.308497
0.254902
0.322876
0.304575
0.295425
0.322876
0.313725
0.322876
0.303268
0.339869
0.213072
0.362092
0.332026
0.298039
0.248366
0.284967
0.29281
0.286275
0.287582
0.337255
0.407843
0.31634
0.333333
0.317647
0.300654
0.334641
0.335948
0.389542
0.27451
0.405229
0.309804
0.381699
0.343791
0.30719
0.350327
0.266667
0.311111
0.265359
0.260131
0.257516
0.256209
0.256209
0.312418
0.475817
0.304575
0.427451
0.478431
0.373856
0.371242
0.277124
0.270588
0.384314
0.305882
0.261438
0.303268
0.386928
0.290196
0.287582
0.281046
0.286275
0.29281
0.228758
0.298039
0.317647
0.295425
0.311111
0.264052
0.266667
0.313725
0.291503
0.282353
0.300654
0.371242
0.313725
0.303268
0.326797
0.308497
0.360784
0.304575
0.347712
0.333333
0.355556
0.321569
0.267974
0.28366
0.299346
0.321569
0.299346
0.312418
0.29281
0.282353
0.294118
0.347712
0.321569
0.322876
0.342484
0.352941
0.318954
0.317647
0.334641
0.290196
0.324183
0.339869
0.338562
0.279739
0.337255
0.282353
0.290196
0.288889
0.329412
0.30719
0.313725
0.270588
0.282353
0.333333
0.298039
0.329412
0.356863
0.475817
0.338562
0.305882
0.34902
0.494118
0.261438
0.389542
0.465359
0.317647
0.29281
0.294118
0.320261
0.282353
0.462745
0.571242
0.573856
0.56732
0.568627
0.564706
0.568627
