# vtk DataFile Version 1.0
Unstructured Grid Example
ASCII

DATASET UNSTRUCTURED_GRID
POINTS 683 float
110 403 0
94 402 0
102 402 0
117 402 0
125 402 0
131 400 0
86 398 0
137 398 0
79 395 0
144 394 0
73 392 0
153 390 0
68 389 0
63 386 0
191 386 0
154 385 0
213 384 0
188 383 0
194 383 0
53 382 0
209 382 0
149 381 0
156 381 0
47 380 0
144 380 0
215 380 0
190 379 0
41 378 0
170 378 0
197 378 0
209 377 0
70 376 0
78 376 0
141 376 0
148 376 0
86 375 0
107 375 0
116 375 0
175 375 0
199 375 0
217 375 0
35 374 0
92 374 0
100 374 0
171 374 0
190 374 0
126 373 0
135 373 0
141 372 0
178 372 0
67 371 0
201 371 0
211 371 0
30 370 0
172 370 0
181 370 0
193 370 0
220 370 0
212 368 0
63 367 0
204 367 0
174 366 0
184 366 0
195 366 0
213 365 0
176 364 0
186 364 0
197 364 0
206 364 0
222 364 0
30 363 0
57 363 0
215 363 0
160 362 0
177 361 0
190 361 0
157 360 0
164 360 0
209 360 0
216 360 0
238 360 0
38 359 0
44 359 0
51 359 0
192 359 0
199 359 0
224 359 0
167 358 0
181 358 0
211 358 0
194 357 0
201 357 0
159 356 0
171 356 0
183 356 0
217 356 0
241 356 0
196 355 0
203 355 0
226 355 0
162 354 0
174 354 0
214 354 0
237 354 0
186 353 0
199 353 0
177 352 0
220 352 0
242 352 0
164 351 0
180 351 0
188 351 0
216 351 0
228 351 0
207 350 0
202 349 0
237 349 0
168 348 0
184 348 0
191 348 0
242 348 0
155 347 0
171 347 0
205 347 0
209 347 0
219 347 0
187 346 0
231 346 0
151 345 0
159 345 0
174 345 0
193 345 0
238 345 0
222 344 0
162 343 0
233 343 0
178 342 0
239 342 0
165 341 0
244 341 0
155 340 0
169 340 0
235 340 0
173 338 0
181 338 0
240 338 0
158 337 0
176 337 0
245 337 0
237 335 0
160 334 0
163 333 0
241 333 0
245 333 0
167 331 0
172 329 0
247 329 0
175 328 0
179 327 0
158 325 0
248 325 0
164 324 0
168 324 0
171 323 0
175 323 0
154 322 0
181 322 0
261 321 0
250 320 0
158 319 0
253 316 0
264 316 0
162 315 0
165 311 0
162 308 0
267 308 0
163 304 0
271 298 0
163 297 0
165 293 0
181 288 0
167 287 0
177 287 0
189 287 0
172 285 0
273 284 0
317 284 0
185 282 0
311 282 0
178 280 0
303 279 0
172 277 0
318 275 0
273 274 0
298 274 0
170 273 0
170 269 0
293 269 0
319 268 0
177 267 0
277 266 0
287 266 0
173 265 0
175 261 0
318 261 0
175 253 0
316 252 0
161 247 0
178 245 0
155 244 0
167 244 0
312 243 0
146 242 0
151 242 0
171 242 0
176 240 0
144 238 0
62 237 0
47 236 0
58 235 0
140 235 0
52 234 0
64 233 0
311 233 0
42 232 0
58 231 0
138 231 0
318 231 0
327 231 0
339 231 0
34 230 0
52 230 0
62 229 0
352 229 0
40 228 0
37 227 0
57 227 0
367 227 0
48 226 0
52 226 0
32 225 0
61 225 0
136 225 0
39 224 0
50 224 0
43 223 0
0 222 0
57 222 0
378 222 0
34 221 0
51 221 0
41 219 0
46 219 0
4 218 0
36 218 0
55 218 0
44 217 0
132 217 0
31 216 0
38 216 0
41 216 0
383 216 0
49 215 0
52 215 0
27 214 0
390 214 0
5 213 0
47 212 0
32 211 0
43 211 0
398 211 0
25 210 0
133 210 0
408 210 0
5 209 0
46 209 0
413 208 0
34 207 0
44 207 0
420 207 0
4 206 0
25 206 0
426 206 0
430 205 0
434 205 0
35 204 0
130 204 0
438 204 0
5 203 0
41 203 0
413 203 0
27 202 0
44 202 0
52 202 0
59 202 0
442 202 0
37 201 0
422 201 0
4 200 0
29 200 0
40 200 0
55 200 0
418 200 0
427 200 0
431 200 0
436 200 0
18 199 0
43 198 0
4 197 0
21 197 0
52 197 0
424 197 0
18 196 0
30 196 0
41 196 0
56 196 0
134 196 0
256 195 0
429 195 0
4 194 0
246 194 0
434 194 0
30 193 0
41 193 0
51 193 0
56 193 0
211 193 0
237 193 0
265 193 0
19 192 0
22 192 0
439 192 0
4 191 0
43 191 0
59 191 0
227 191 0
443 191 0
29 190 0
33 190 0
67 190 0
447 190 0
9 189 0
51 189 0
62 189 0
71 189 0
78 189 0
136 189 0
6 188 0
14 188 0
23 188 0
45 188 0
451 188 0
20 187 0
28 187 0
31 187 0
34 187 0
458 187 0
48 186 0
260 186 0
7 185 0
15 185 0
23 185 0
463 185 0
467 185 0
27 184 0
190 184 0
33 183 0
142 183 0
149 183 0
471 183 0
22 182 0
155 182 0
257 182 0
76 181 0
441 181 0
18 180 0
30 180 0
451 179 0
474 179 0
73 178 0
445 178 0
454 178 0
457 178 0
460 178 0
469 178 0
261 177 0
448 177 0
464 177 0
70 176 0
151 175 0
172 175 0
452 175 0
431 174 0
457 173 0
70 172 0
74 172 0
165 172 0
462 171 0
153 170 0
158 170 0
465 170 0
257 169 0
436 169 0
441 169 0
469 169 0
59 168 0
444 168 0
472 168 0
55 167 0
72 167 0
51 166 0
447 166 0
260 165 0
450 165 0
453 165 0
478 165 0
57 164 0
445 164 0
456 164 0
13 163 0
69 163 0
448 162 0
459 162 0
462 162 0
483 162 0
53 161 0
263 161 0
451 161 0
466 161 0
67 160 0
469 160 0
470 160 0
474 160 0
478 160 0
8 159 0
433 159 0
453 159 0
0 158 0
64 158 0
457 158 0
268 157 0
442 157 0
4 156 0
61 156 0
439 156 0
459 156 0
8 155 0
444 155 0
462 155 0
436 154 0
39 153 0
446 153 0
464 153 0
5 152 0
8 152 0
12 152 0
58 152 0
439 152 0
449 151 0
469 151 0
272 150 0
473 150 0
0 149 0
60 149 0
441 149 0
451 149 0
11 148 0
64 148 0
444 148 0
455 148 0
1 147 0
6 147 0
458 147 0
476 147 0
10 145 0
13 145 0
428 145 0
460 145 0
1 144 0
280 144 0
447 144 0
465 144 0
469 144 0
473 144 0
8 143 0
286 143 0
450 143 0
0 142 0
14 142 0
64 142 0
433 142 0
36 141 0
427 141 0
436 141 0
452 141 0
5 140 0
11 140 0
1 139 0
39 139 0
293 139 0
455 139 0
32 138 0
69 138 0
300 138 0
439 138 0
305 137 0
432 137 0
2 136 0
10 136 0
37 136 0
61 136 0
442 136 0
458 136 0
7 135 0
65 135 0
313 135 0
4 134 0
29 134 0
58 134 0
418 134 0
445 134 0
0 133 0
435 133 0
51 132 0
321 132 0
348 132 0
35 131 0
334 131 0
403 131 0
421 131 0
451 131 0
457 131 0
462 131 0
327 130 0
399 130 0
417 130 0
425 130 0
437 130 0
339 129 0
344 129 0
3 128 0
32 128 0
354 128 0
369 128 0
49 127 0
364 127 0
384 127 0
409 127 0
419 127 0
431 127 0
358 126 0
389 126 0
372 125 0
379 124 0
412 124 0
434 124 0
0 123 0
47 123 0
395 123 0
4 122 0
51 122 0
418 122 0
2 119 0
50 116 0
4 115 0
37 115 0
26 114 0
1 112 0
24 110 0
32 110 0
50 110 0
3 109 0
37 109 0
9 108 0
41 108 0
28 107 0
44 107 0
1 106 0
6 106 0
23 106 0
39 106 0
9 105 0
48 105 0
28 104 0
45 104 0
5 103 0
35 103 0
10 102 0
25 102 0
21 101 0
4 100 0
34 100 0
37 100 0
11 98 0
39 97 0
58 97 0
8 96 0
43 95 0
47 95 0
51 95 0
56 93 0
38 92 0
53 90 0
51 85 0
55 84 0
53 79 0
51 73 0
56 72 0
56 68 0
54 65 0
57 61 0
61 60 0
65 57 0
29 54 0
22 53 0
61 53 0
33 52 0
37 52 0
41 52 0
47 52 0
56 52 0
18 51 0
50 51 0
39 48 0
44 47 0
16 46 0
36 45 0
14 43 0
34 42 0
43 42 0
23 41 0
26 41 0
10 40 0
20 40 0
29 40 0
32 39 0
44 39 0
9 37 0
19 37 0
45 36 0
9 34 0
17 33 0
54 33 0
26 32 0
29 32 0
47 32 0
7 30 0
15 30 0
24 30 0
28 29 0
56 29 0
7 27 0
23 27 0
15 26 0
28 26 0
53 25 0
6 24 0
13 24 0
28 23 0
49 23 0
4 22 0
10 22 0
22 22 0
43 20 0
7 19 0
19 19 0
27 19 0
39 19 0
3 18 0
24 18 0
33 18 0
1 17 0
17 17 0
6 16 0
22 16 0
0 15 0
25 15 0
29 15 0
16 14 0
3 12 0
13 12 0
9 11 0
6 10 0
CELLS 683 1366
1 0
1 1
1 2
1 3
1 4
1 5
1 6
1 7
1 8
1 9
1 10
1 11
1 12
1 13
1 14
1 15
1 16
1 17
1 18
1 19
1 20
1 21
1 22
1 23
1 24
1 25
1 26
1 27
1 28
1 29
1 30
1 31
1 32
1 33
1 34
1 35
1 36
1 37
1 38
1 39
1 40
1 41
1 42
1 43
1 44
1 45
1 46
1 47
1 48
1 49
1 50
1 51
1 52
1 53
1 54
1 55
1 56
1 57
1 58
1 59
1 60
1 61
1 62
1 63
1 64
1 65
1 66
1 67
1 68
1 69
1 70
1 71
1 72
1 73
1 74
1 75
1 76
1 77
1 78
1 79
1 80
1 81
1 82
1 83
1 84
1 85
1 86
1 87
1 88
1 89
1 90
1 91
1 92
1 93
1 94
1 95
1 96
1 97
1 98
1 99
1 100
1 101
1 102
1 103
1 104
1 105
1 106
1 107
1 108
1 109
1 110
1 111
1 112
1 113
1 114
1 115
1 116
1 117
1 118
1 119
1 120
1 121
1 122
1 123
1 124
1 125
1 126
1 127
1 128
1 129
1 130
1 131
1 132
1 133
1 134
1 135
1 136
1 137
1 138
1 139
1 140
1 141
1 142
1 143
1 144
1 145
1 146
1 147
1 148
1 149
1 150
1 151
1 152
1 153
1 154
1 155
1 156
1 157
1 158
1 159
1 160
1 161
1 162
1 163
1 164
1 165
1 166
1 167
1 168
1 169
1 170
1 171
1 172
1 173
1 174
1 175
1 176
1 177
1 178
1 179
1 180
1 181
1 182
1 183
1 184
1 185
1 186
1 187
1 188
1 189
1 190
1 191
1 192
1 193
1 194
1 195
1 196
1 197
1 198
1 199
1 200
1 201
1 202
1 203
1 204
1 205
1 206
1 207
1 208
1 209
1 210
1 211
1 212
1 213
1 214
1 215
1 216
1 217
1 218
1 219
1 220
1 221
1 222
1 223
1 224
1 225
1 226
1 227
1 228
1 229
1 230
1 231
1 232
1 233
1 234
1 235
1 236
1 237
1 238
1 239
1 240
1 241
1 242
1 243
1 244
1 245
1 246
1 247
1 248
1 249
1 250
1 251
1 252
1 253
1 254
1 255
1 256
1 257
1 258
1 259
1 260
1 261
1 262
1 263
1 264
1 265
1 266
1 267
1 268
1 269
1 270
1 271
1 272
1 273
1 274
1 275
1 276
1 277
1 278
1 279
1 280
1 281
1 282
1 283
1 284
1 285
1 286
1 287
1 288
1 289
1 290
1 291
1 292
1 293
1 294
1 295
1 296
1 297
1 298
1 299
1 300
1 301
1 302
1 303
1 304
1 305
1 306
1 307
1 308
1 309
1 310
1 311
1 312
1 313
1 314
1 315
1 316
1 317
1 318
1 319
1 320
1 321
1 322
1 323
1 324
1 325
1 326
1 327
1 328
1 329
1 330
1 331
1 332
1 333
1 334
1 335
1 336
1 337
1 338
1 339
1 340
1 341
1 342
1 343
1 344
1 345
1 346
1 347
1 348
1 349
1 350
1 351
1 352
1 353
1 354
1 355
1 356
1 357
1 358
1 359
1 360
1 361
1 362
1 363
1 364
1 365
1 366
1 367
1 368
1 369
1 370
1 371
1 372
1 373
1 374
1 375
1 376
1 377
1 378
1 379
1 380
1 381
1 382
1 383
1 384
1 385
1 386
1 387
1 388
1 389
1 390
1 391
1 392
1 393
1 394
1 395
1 396
1 397
1 398
1 399
1 400
1 401
1 402
1 403
1 404
1 405
1 406
1 407
1 408
1 409
1 410
1 411
1 412
1 413
1 414
1 415
1 416
1 417
1 418
1 419
1 420
1 421
1 422
1 423
1 424
1 425
1 426
1 427
1 428
1 429
1 430
1 431
1 432
1 433
1 434
1 435
1 436
1 437
1 438
1 439
1 440
1 441
1 442
1 443
1 444
1 445
1 446
1 447
1 448
1 449
1 450
1 451
1 452
1 453
1 454
1 455
1 456
1 457
1 458
1 459
1 460
1 461
1 462
1 463
1 464
1 465
1 466
1 467
1 468
1 469
1 470
1 471
1 472
1 473
1 474
1 475
1 476
1 477
1 478
1 479
1 480
1 481
1 482
1 483
1 484
1 485
1 486
1 487
1 488
1 489
1 490
1 491
1 492
1 493
1 494
1 495
1 496
1 497
1 498
1 499
1 500
1 501
1 502
1 503
1 504
1 505
1 506
1 507
1 508
1 509
1 510
1 511
1 512
1 513
1 514
1 515
1 516
1 517
1 518
1 519
1 520
1 521
1 522
1 523
1 524
1 525
1 526
1 527
1 528
1 529
1 530
1 531
1 532
1 533
1 534
1 535
1 536
1 537
1 538
1 539
1 540
1 541
1 542
1 543
1 544
1 545
1 546
1 547
1 548
1 549
1 550
1 551
1 552
1 553
1 554
1 555
1 556
1 557
1 558
1 559
1 560
1 561
1 562
1 563
1 564
1 565
1 566
1 567
1 568
1 569
1 570
1 571
1 572
1 573
1 574
1 575
1 576
1 577
1 578
1 579
1 580
1 581
1 582
1 583
1 584
1 585
1 586
1 587
1 588
1 589
1 590
1 591
1 592
1 593
1 594
1 595
1 596
1 597
1 598
1 599
1 600
1 601
1 602
1 603
1 604
1 605
1 606
1 607
1 608
1 609
1 610
1 611
1 612
1 613
1 614
1 615
1 616
1 617
1 618
1 619
1 620
1 621
1 622
1 623
1 624
1 625
1 626
1 627
1 628
1 629
1 630
1 631
1 632
1 633
1 634
1 635
1 636
1 637
1 638
1 639
1 640
1 641
1 642
1 643
1 644
1 645
1 646
1 647
1 648
1 649
1 650
1 651
1 652
1 653
1 654
1 655
1 656
1 657
1 658
1 659
1 660
1 661
1 662
1 663
1 664
1 665
1 666
1 667
1 668
1 669
1 670
1 671
1 672
1 673
1 674
1 675
1 676
1 677
1 678
1 679
1 680
1 681
1 682
CELL_TYPES 683
1 1 1 1 1 1 1 1 1 1 1 1 1 1 1 1 1 1 1 1 1 1 1 1 1 1 1 1 1 1 1 1 1 1 1 1 1 1 1 1 1 1 1 1 1 1 1 1 1 1 1 1 1 1 1 1 1 1 1 1 1 1 1 1 1 1 1 1 1 1 1 1 1 1 1 1 1 1 1 1 1 1 1 1 1 1 1 1 1 1 1 1 1 1 1 1 1 1 1 1 1 1 1 1 1 1 1 1 1 1 1 1 1 1 1 1 1 1 1 1 1 1 1 1 1 1 1 1 1 1 1 1 1 1 1 1 1 1 1 1 1 1 1 1 1 1 1 1 1 1 1 1 1 1 1 1 1 1 1 1 1 1 1 1 1 1 1 1 1 1 1 1 1 1 1 1 1 1 1 1 1 1 1 1 1 1 1 1 1 1 1 1 1 1 1 1 1 1 1 1 1 1 1 1 1 1 1 1 1 1 1 1 1 1 1 1 1 1 1 1 1 1 1 1 1 1 1 1 1 1 1 1 1 1 1 1 1 1 1 1 1 1 1 1 1 1 1 1 1 1 1 1 1 1 1 1 1 1 1 1 1 1 1 1 1 1 1 1 1 1 1 1 1 1 1 1 1 1 1 1 1 1 1 1 1 1 1 1 1 1 1 1 1 1 1 1 1 1 1 1 1 1 1 1 1 1 1 1 1 1 1 1 1 1 1 1 1 1 1 1 1 1 1 1 1 1 1 1 1 1 1 1 1 1 1 1 1 1 1 1 1 1 1 1 1 1 1 1 1 1 1 1 1 1 1 1 1 1 1 1 1 1 1 1 1 1 1 1 1 1 1 1 1 1 1 1 1 1 1 1 1 1 1 1 1 1 1 1 1 1 1 1 1 1 1 1 1 1 1 1 1 1 1 1 1 1 1 1 1 1 1 1 1 1 1 1 1 1 1 1 1 1 1 1 1 1 1 1 1 1 1 1 1 1 1 1 1 1 1 1 1 1 1 1 1 1 1 1 1 1 1 1 1 1 1 1 1 1 1 1 1 1 1 1 1 1 1 1 1 1 1 1 1 1 1 1 1 1 1 1 1 1 1 1 1 1 1 1 1 1 1 1 1 1 1 1 1 1 1 1 1 1 1 1 1 1 1 1 1 1 1 1 1 1 1 1 1 1 1 1 1 1 1 1 1 1 1 1 1 1 1 1 1 1 1 1 1 1 1 1 1 1 1 1 1 1 1 1 1 1 1 1 1 1 1 1 1 1 1 1 1 1 1 1 1 1 1 1 1 1 1 1 1 1 1 1 1 1 1 1 1 1 1 1 1 1 1 1 1 1 1 1 1 1 1 1 1 1 1 1 1 1 1 1 1 1 1 1 1 1 1 1 1 1 1 1 1 1 1 1 1 1 1 1 1 1 1 1 1 1 1 1 1 1 1 1 1 1 1 1 1 1 1 1 1 1 1 1 1 1 1 1 1 1 1 1 1 1 1 1 1 1 1 1 1 1 1 1 1 1 1 1 1 1 1 1 1 1 1 1 1 1 1 
CELL_DATA 683
COLOR_SCALARS lut 1
0.407402
0.526886
0.494005
0.348415
0.370367
0.399676
0.478227
0.394747
0.424561
0.33185
0.378651
0.293363
0.35055
0.343091
0.269525
0.256409
0.296166
0.23546
0.231003
0.385484
0.251253
0.222582
0.248843
0.403913
0.227338
0.255318
0.192947
0.402415
0.249648
0.189373
0.198881
0.302103
0.313055
0.231268
0.220018
0.332487
0.466745
0.380628
0.206788
0.174314
0.224918
0.370933
0.375175
0.456137
0.212306
0.166075
0.311055
0.269496
0.245067
0.180833
0.334527
0.159249
0.168342
0.356736
0.186222
0.167191
0.151373
0.217405
0.159616
0.371613
0.149615
0.165129
0.15131
0.143451
0.153983
0.155111
0.145489
0.141811
0.145491
0.197225
0.347608
0.403997
0.155687
0.201402
0.146563
0.140648
0.215518
0.176214
0.145977
0.15492
0.285252
0.371014
0.396197
0.428296
0.14152
0.144545
0.185722
0.160469
0.139547
0.149439
0.145709
0.15037
0.193617
0.146879
0.139143
0.15917
0.26199
0.153643
0.158892
0.180861
0.171883
0.139988
0.162923
0.212099
0.145664
0.166818
0.137693
0.173175
0.235849
0.159133
0.140024
0.156133
0.179012
0.179584
0.192652
0.202226
0.185729
0.145788
0.156828
0.183113
0.212824
0.213983
0.141569
0.225944
0.223298
0.20733
0.180228
0.185501
0.263459
0.176609
0.142434
0.219705
0.183356
0.229701
0.160435
0.193141
0.157637
0.189266
0.152321
0.215943
0.21125
0.147934
0.204207
0.154111
0.193731
0.204376
0.188495
0.166466
0.224732
0.236134
0.180291
0.167951
0.23385
0.233127
0.162434
0.172253
0.250758
0.189765
0.228907
0.201837
0.264211
0.175163
0.176516
0.190478
0.214993
0.252612
0.289451
0.298159
0.280644
0.216538
0.30308
0.326958
0.211169
0.227166
0.238093
0.431479
0.245782
0.577803
0.258661
0.251542
0.23026
0.240969
0.213297
0.289534
0.212328
0.54205
0.331795
0.243949
0.329236
0.211173
0.404482
0.227402
0.342654
0.475281
0.439836
0.251193
0.258475
0.459408
0.410644
0.257156
0.465366
0.460635
0.253119
0.26677
0.462488
0.276374
0.463555
0.283924
0.293397
0.283
0.276463
0.384665
0.289535
0.281689
0.282683
0.313441
0.278719
0.287891
0.228064
0.234836
0.282975
0.202807
0.27997
0.353326
0.197161
0.206924
0.284546
0.392395
0.503217
0.692368
0.24101
0.172409
0.245102
0.881515
0.173367
0.184826
0.191584
0.767022
0.149352
0.159787
0.214915
0.240212
0.296837
0.155694
0.149998
0.141233
0.275493
0.200559
0.514189
0.170342
0.154675
0.136522
0.137936
0.241315
0.148495
0.192454
0.135195
0.309907
0.16782
0.139062
0.134629
0.426582
0.152788
0.172667
0.186834
0.415516
0.191577
0.147145
0.149662
0.137277
0.41676
0.182614
0.293568
0.320263
0.164779
0.145663
0.268492
0.141372
0.140841
0.234771
0.144605
0.168907
0.223098
0.22015
0.236023
0.139586
0.300129
0.253295
0.143283
0.138203
0.271302
0.152039
0.141596
0.166954
0.219733
0.272218
0.13965
0.218369
0.129858
0.145433
0.140248
0.17928
0.249237
0.201471
0.196257
0.208251
0.170934
0.144007
0.125388
0.155978
0.160916
0.231181
0.159185
0.14379
0.147203
0.17707
0.30153
0.307848
0.215721
0.123045
0.419555
0.203641
0.145833
0.156019
0.162296
0.176236
1
0.575298
0.312889
0.147731
0.144765
0.205969
0.123935
0.16446
0.189201
0.77287
0.212959
0.150052
0.158399
0.220073
0.22259
0.145291
0.177784
0.201033
0.232616
0.290536
0.297285
0.137802
0.151926
0.148774
0.181912
0.222363
0.151124
0.159252
0.167086
0.176531
0.231848
0.19639
0.261503
0.15336
0.161091
0.161383
0.224974
0.245988
0.175023
0.847072
0.204071
0.285094
0.273661
0.256942
0.181238
0.295155
0.272206
0.245548
0.204226
0.195394
0.221582
0.174988
0.257204
0.221795
0.184957
0.167456
0.165161
0.166025
0.199865
0.274477
0.175387
0.169911
0.210576
0.270184
0.498771
0.162926
0.292114
0.15246
0.208373
0.230102
0.392486
0.151331
0.30468
0.325084
0.156308
0.311237
0.225418
0.18776
0.170025
0.210903
0.172224
0.184839
0.221871
0.23211
0.244463
0.158664
0.30568
0.149609
0.14452
0.22819
0.21022
0.161169
0.140247
0.22617
0.227875
0.149351
0.138169
0.140756
0.294473
0.229317
0.311452
0.1424
0.148609
0.224965
0.159039
0.163313
0.186392
0.22337
0.172293
0.241099
0.139151
0.127057
0.213132
0.137935
0.324756
0.163306
0.137355
0.206942
0.179029
0.140761
0.155169
0.153683
0.146033
0.199426
0.292213
0.147646
0.154302
0.13044
0.146697
0.176731
0.208515
0.17427
0.143709
0.178833
0.36859
0.210415
0.106924
0.205151
0.162019
0.144111
0.162167
0.21494
0.152653
0.147591
0.110158
0.130209
0.154395
0.262094
0.154895
0.179017
0.238978
0.166035
0.112776
0.346205
0.15305
0.192451
0.217069
0.252728
0.144631
0.31794
0.154722
0.11361
0.191623
0.218321
0.185344
0.218484
0.222053
0.170803
0.162626
0.136578
0.172859
0.12512
0.211134
0.321608
0.17771
0.213435
0.275475
0.319858
0.165705
0.316597
0.17761
0.140912
0.183857
0.200933
0.221547
0.172632
0.211212
0.169718
0.253607
0.310486
0.15948
0.218111
0.218535
0.240291
0.188095
0.150774
0.175105
0.207751
0.311621
0.287156
0.201264
0.291254
0.265573
0.210866
0.229413
0.257801
0.305234
0.309051
0.259074
0.223706
0.200066
0.191804
0.289681
0.281945
0.191246
0.213795
0.284403
0.275385
0.206137
0.278126
0.271763
0.250691
0.218527
0.207329
0.289961
0.266675
0.274945
0.276085
0.255669
0.243036
0.200448
0.204778
0.27447
0.215493
0.218836
0.260717
0.20212
0.218097
0.189454
0.181649
0.199167
0.164403
0.187147
0.163902
0.214414
0.154809
0.158894
0.177404
0.164065
0.169202
0.172849
0.138572
0.156949
0.18537
0.158154
0.170903
0.193417
0.17556
0.176108
0.14972
0.162678
0.178712
0.194111
0.209657
0.150481
0.179506
0.17238
0.20598
0.185485
0.2914
0.202721
0.19043
0.190873
0.205433
0.251094
0.231554
0.219766
0.220608
0.236414
0.229477
0.234064
0.231286
0.222874
0.21503
0.210667
0.231867
0.273422
0.231408
0.250144
0.242303
0.201507
0.193662
0.187799
0.186604
0.212192
0.247648
0.190808
0.173932
0.17608
0.208155
0.170174
0.191794
0.16761
0.178325
0.164413
0.16243
0.180588
0.163784
0.161032
0.164921
0.184414
0.164596
0.155644
0.189756
0.151302
0.147489
0.241255
0.152759
0.160849
0.201212
0.136118
0.141855
0.148466
0.158575
0.278879
0.128884
0.14582
0.13734
0.159945
0.275743
0.123538
0.134384
0.163014
0.261753
0.119834
0.130022
0.146828
0.258112
0.126998
0.147897
0.168863
0.245027
0.121699
0.162077
0.208499
0.119883
0.149858
0.128587
0.165076
0.11976
0.180272
0.199086
0.157437
0.124363
0.154186
0.142004
0.132708
