# vtk DataFile Version 1.0
Unstructured Grid Example
ASCII

DATASET UNSTRUCTURED_GRID
POINTS 2381 float
6 513 0
12 513 0
19 513 0
29 513 0
47 513 0
67 513 0
92 513 0
118 513 0
152 513 0
177 513 0
224 513 0
252 513 0
295 513 0
351 513 0
391 513 0
427 513 0
459 513 0
474 513 0
488 513 0
497 513 0
504 513 0
509 513 0
0 511 0
507 509 0
512 508 0
2 506 0
13 504 0
495 502 0
506 502 0
0 501 0
512 499 0
39 498 0
9 493 0
23 493 0
0 492 0
69 491 0
512 491 0
101 489 0
503 489 0
462 488 0
486 488 0
419 486 0
217 481 0
0 480 0
135 478 0
497 473 0
512 472 0
265 469 0
27 468 0
173 468 0
361 468 0
0 464 0
89 452 0
114 448 0
488 446 0
0 444 0
512 441 0
58 440 0
441 440 0
23 438 0
135 434 0
206 434 0
181 428 0
231 427 0
122 425 0
92 424 0
158 422 0
0 419 0
76 419 0
105 417 0
491 416 0
142 415 0
310 415 0
130 414 0
192 414 0
95 412 0
17 411 0
40 411 0
59 410 0
121 410 0
172 410 0
208 410 0
235 410 0
113 409 0
81 406 0
161 406 0
139 405 0
110 403 0
152 403 0
0 402 0
94 402 0
102 402 0
117 402 0
125 402 0
186 402 0
74 401 0
131 400 0
145 400 0
219 400 0
66 399 0
86 398 0
137 398 0
246 398 0
122 397 0
164 397 0
177 397 0
209 397 0
50 396 0
116 396 0
29 395 0
79 395 0
154 395 0
197 395 0
58 394 0
144 394 0
229 394 0
132 393 0
73 392 0
105 392 0
171 392 0
191 392 0
219 392 0
140 391 0
148 391 0
159 391 0
183 391 0
87 390 0
97 390 0
153 390 0
204 390 0
0 389 0
68 389 0
128 389 0
210 389 0
265 389 0
79 388 0
119 388 0
144 388 0
164 388 0
178 388 0
42 387 0
136 387 0
199 387 0
63 386 0
149 386 0
191 386 0
237 386 0
11 385 0
91 385 0
124 385 0
154 385 0
159 385 0
512 385 0
106 384 0
113 384 0
142 384 0
169 384 0
174 384 0
205 384 0
213 384 0
219 384 0
35 383 0
71 383 0
179 383 0
188 383 0
194 383 0
53 382 0
77 382 0
163 382 0
184 382 0
199 382 0
209 382 0
86 381 0
97 381 0
138 381 0
149 381 0
156 381 0
225 381 0
28 380 0
47 380 0
67 380 0
121 380 0
127 380 0
133 380 0
144 380 0
215 380 0
62 379 0
175 379 0
181 379 0
190 379 0
202 379 0
206 379 0
250 379 0
41 378 0
57 378 0
151 378 0
170 378 0
185 378 0
197 378 0
137 377 0
164 377 0
209 377 0
0 376 0
70 376 0
78 376 0
141 376 0
148 376 0
157 376 0
179 376 0
194 376 0
204 376 0
234 376 0
86 375 0
107 375 0
116 375 0
131 375 0
175 375 0
199 375 0
217 375 0
227 375 0
17 374 0
35 374 0
52 374 0
92 374 0
100 374 0
153 374 0
171 374 0
183 374 0
190 374 0
221 374 0
59 373 0
126 373 0
135 373 0
167 373 0
187 373 0
194 373 0
214 373 0
74 372 0
141 372 0
145 372 0
178 372 0
197 372 0
207 372 0
67 371 0
149 371 0
159 371 0
164 371 0
175 371 0
184 371 0
189 371 0
201 371 0
204 371 0
211 371 0
30 370 0
43 370 0
79 370 0
154 370 0
172 370 0
181 370 0
193 370 0
220 370 0
247 370 0
9 369 0
85 369 0
186 369 0
197 369 0
225 369 0
234 369 0
398 369 0
0 368 0
120 368 0
135 368 0
176 368 0
179 368 0
201 368 0
212 368 0
216 368 0
36 367 0
51 367 0
63 367 0
96 367 0
141 367 0
151 367 0
168 367 0
192 367 0
204 367 0
207 367 0
164 366 0
171 366 0
174 366 0
184 366 0
189 366 0
195 366 0
210 366 0
228 366 0
239 366 0
257 366 0
41 365 0
69 365 0
130 365 0
147 365 0
158 365 0
181 365 0
201 365 0
213 365 0
268 365 0
176 364 0
186 364 0
193 364 0
197 364 0
206 364 0
218 364 0
222 364 0
465 364 0
24 363 0
30 363 0
57 363 0
80 363 0
113 363 0
154 363 0
179 363 0
215 363 0
136 362 0
142 362 0
160 362 0
167 362 0
170 362 0
173 362 0
200 362 0
211 362 0
226 362 0
231 362 0
89 361 0
150 361 0
177 361 0
183 361 0
186 361 0
190 361 0
203 361 0
220 361 0
248 361 0
157 360 0
164 360 0
195 360 0
209 360 0
216 360 0
238 360 0
0 359 0
13 359 0
38 359 0
44 359 0
51 359 0
171 359 0
192 359 0
199 359 0
206 359 0
224 359 0
153 358 0
167 358 0
174 358 0
178 358 0
181 358 0
185 358 0
188 358 0
211 358 0
214 358 0
219 358 0
233 358 0
73 357 0
163 357 0
194 357 0
201 357 0
229 357 0
28 356 0
103 356 0
128 356 0
159 356 0
171 356 0
183 356 0
208 356 0
217 356 0
223 356 0
241 356 0
257 356 0
60 355 0
143 355 0
166 355 0
178 355 0
189 355 0
196 355 0
203 355 0
220 355 0
226 355 0
162 354 0
169 354 0
174 354 0
193 354 0
206 354 0
214 354 0
232 354 0
237 354 0
151 353 0
157 353 0
182 353 0
186 353 0
199 353 0
210 353 0
223 353 0
249 353 0
167 352 0
171 352 0
177 352 0
191 352 0
220 352 0
242 352 0
306 352 0
37 351 0
164 351 0
180 351 0
184 351 0
188 351 0
216 351 0
228 351 0
234 351 0
49 350 0
114 350 0
136 350 0
159 350 0
173 350 0
197 350 0
207 350 0
213 350 0
224 350 0
231 350 0
147 349 0
194 349 0
202 349 0
237 349 0
25 348 0
162 348 0
168 348 0
176 348 0
179 348 0
184 348 0
191 348 0
227 348 0
242 348 0
155 347 0
165 347 0
171 347 0
205 347 0
209 347 0
219 347 0
260 347 0
10 346 0
79 346 0
182 346 0
187 346 0
215 346 0
231 346 0
235 346 0
249 346 0
271 346 0
284 346 0
0 345 0
142 345 0
151 345 0
159 345 0
169 345 0
174 345 0
178 345 0
193 345 0
197 345 0
201 345 0
238 345 0
244 345 0
166 344 0
222 344 0
227 344 0
162 343 0
171 343 0
184 343 0
218 343 0
233 343 0
178 342 0
181 342 0
210 342 0
239 342 0
59 341 0
130 341 0
165 341 0
174 341 0
189 341 0
244 341 0
94 340 0
148 340 0
155 340 0
160 340 0
169 340 0
202 340 0
226 340 0
230 340 0
235 340 0
185 339 0
197 339 0
221 339 0
252 339 0
258 339 0
167 338 0
173 338 0
181 338 0
215 338 0
240 338 0
152 337 0
158 337 0
162 337 0
176 337 0
245 337 0
165 336 0
170 336 0
207 336 0
193 335 0
237 335 0
324 335 0
160 334 0
167 334 0
175 334 0
179 334 0
186 334 0
273 334 0
37 333 0
163 333 0
171 333 0
232 333 0
241 333 0
245 333 0
250 333 0
16 332 0
150 332 0
156 332 0
1 331 0
140 331 0
167 331 0
176 331 0
224 331 0
111 330 0
161 330 0
164 330 0
202 330 0
217 330 0
254 330 0
265 330 0
169 329 0
172 329 0
184 329 0
235 329 0
243 329 0
247 329 0
71 328 0
166 328 0
175 328 0
289 328 0
154 327 0
163 327 0
179 327 0
259 327 0
148 326 0
172 326 0
53 325 0
158 325 0
194 325 0
248 325 0
164 324 0
168 324 0
254 324 0
91 323 0
128 323 0
171 323 0
175 323 0
237 323 0
267 323 0
276 323 0
154 322 0
181 322 0
210 322 0
161 321 0
228 321 0
261 321 0
140 320 0
169 320 0
173 320 0
244 320 0
250 320 0
256 320 0
149 319 0
158 319 0
188 319 0
321 319 0
164 318 0
154 317 0
176 317 0
235 316 0
253 316 0
264 316 0
303 316 0
162 315 0
167 315 0
0 314 0
157 314 0
245 314 0
276 314 0
171 313 0
341 313 0
187 312 0
198 312 0
217 312 0
260 312 0
148 311 0
165 311 0
176 311 0
158 310 0
131 309 0
162 308 0
168 308 0
267 308 0
238 307 0
248 307 0
155 306 0
285 306 0
465 306 0
25 305 0
179 305 0
163 304 0
170 304 0
256 304 0
512 304 0
205 303 0
226 303 0
185 302 0
302 302 0
331 301 0
98 300 0
159 300 0
166 300 0
146 299 0
175 299 0
196 299 0
1 298 0
271 298 0
315 298 0
154 297 0
163 297 0
170 297 0
181 297 0
216 295 0
63 294 0
173 294 0
185 294 0
247 294 0
159 293 0
165 293 0
169 293 0
205 293 0
306 293 0
193 292 0
177 291 0
295 291 0
314 291 0
172 290 0
262 290 0
280 290 0
365 290 0
123 289 0
162 289 0
185 289 0
321 289 0
155 288 0
181 288 0
340 288 0
167 287 0
177 287 0
189 287 0
145 286 0
172 285 0
305 285 0
273 284 0
317 284 0
166 283 0
176 283 0
181 283 0
201 283 0
289 283 0
0 282 0
160 282 0
185 282 0
311 282 0
330 282 0
170 281 0
214 281 0
280 281 0
174 280 0
178 280 0
322 280 0
303 279 0
17 278 0
192 278 0
135 277 0
172 277 0
181 277 0
162 276 0
265 275 0
318 275 0
156 274 0
175 274 0
185 274 0
235 274 0
256 274 0
273 274 0
298 274 0
311 274 0
340 274 0
511 274 0
97 273 0
170 273 0
180 273 0
282 273 0
305 273 0
146 272 0
204 272 0
399 272 0
327 271 0
434 271 0
165 270 0
174 270 0
46 269 0
119 269 0
170 269 0
293 269 0
312 268 0
319 268 0
177 267 0
189 267 0
62 266 0
160 266 0
277 266 0
287 266 0
302 266 0
360 266 0
173 265 0
183 265 0
168 264 0
75 262 0
332 262 0
27 261 0
131 261 0
175 261 0
180 261 0
201 261 0
221 261 0
264 261 0
318 261 0
153 260 0
0 259 0
169 259 0
186 259 0
163 258 0
247 258 0
290 258 0
298 258 0
173 257 0
307 257 0
54 256 0
279 256 0
141 255 0
169 254 0
159 253 0
164 253 0
175 253 0
180 253 0
38 252 0
190 252 0
316 252 0
329 252 0
512 252 0
118 251 0
417 251 0
84 250 0
134 250 0
27 249 0
146 249 0
167 249 0
303 249 0
14 248 0
105 248 0
152 248 0
172 248 0
285 248 0
467 248 0
161 247 0
184 247 0
321 247 0
344 247 0
53 246 0
62 246 0
47 245 0
178 245 0
0 244 0
155 244 0
167 244 0
192 244 0
373 244 0
71 243 0
130 243 0
139 243 0
265 243 0
312 243 0
146 242 0
151 242 0
159 242 0
171 242 0
206 242 0
358 242 0
183 241 0
298 241 0
37 240 0
52 240 0
57 240 0
176 240 0
320 240 0
328 240 0
396 240 0
22 239 0
91 239 0
432 239 0
42 238 0
144 238 0
163 238 0
62 237 0
126 237 0
153 237 0
158 237 0
169 237 0
307 237 0
47 236 0
69 236 0
148 236 0
29 235 0
37 235 0
58 235 0
135 235 0
140 235 0
9 234 0
52 234 0
177 234 0
64 233 0
185 233 0
311 233 0
0 232 0
42 232 0
48 232 0
294 232 0
18 231 0
58 231 0
113 231 0
138 231 0
147 231 0
163 231 0
318 231 0
327 231 0
339 231 0
25 230 0
34 230 0
52 230 0
78 230 0
133 230 0
170 230 0
383 230 0
417 230 0
497 230 0
47 229 0
62 229 0
69 229 0
352 229 0
40 228 0
43 228 0
230 228 0
402 228 0
37 227 0
57 227 0
207 227 0
250 227 0
367 227 0
10 226 0
48 226 0
52 226 0
126 226 0
141 226 0
153 226 0
264 226 0
280 226 0
301 226 0
313 226 0
440 226 0
28 225 0
32 225 0
45 225 0
61 225 0
96 225 0
136 225 0
39 224 0
50 224 0
322 224 0
427 224 0
19 223 0
43 223 0
53 223 0
66 223 0
164 223 0
0 222 0
24 222 0
37 222 0
57 222 0
131 222 0
378 222 0
410 222 0
512 222 0
30 221 0
34 221 0
48 221 0
51 221 0
61 221 0
73 221 0
118 221 0
148 221 0
307 221 0
392 221 0
451 221 0
13 220 0
139 220 0
332 220 0
41 219 0
46 219 0
126 219 0
180 219 0
401 219 0
4 218 0
28 218 0
33 218 0
36 218 0
49 218 0
55 218 0
107 218 0
417 218 0
0 217 0
22 217 0
44 217 0
132 217 0
17 216 0
31 216 0
38 216 0
41 216 0
63 216 0
368 216 0
383 216 0
34 215 0
46 215 0
49 215 0
52 215 0
57 215 0
69 215 0
138 215 0
272 215 0
292 215 0
315 215 0
429 215 0
480 215 0
10 214 0
27 214 0
43 214 0
79 214 0
145 214 0
390 214 0
435 214 0
5 213 0
30 213 0
36 213 0
40 213 0
119 213 0
126 213 0
247 213 0
423 213 0
442 213 0
2 212 0
15 212 0
21 212 0
47 212 0
50 212 0
349 212 0
416 212 0
32 211 0
43 211 0
55 211 0
97 211 0
165 211 0
398 211 0
10 210 0
25 210 0
29 210 0
36 210 0
62 210 0
133 210 0
140 210 0
153 210 0
194 210 0
408 210 0
0 209 0
[...]
CELL_DATA 2381
COLOR_SCALARS lut 1
0.0397694
0.0565744
0.0792534
0.113244
0.17494
0.241729
0.280393
0.279367
0.290818
0.31206
0.325312
0.343614
0.404227
0.500753
0.428727
0.305354
0.195573
0.144108
0.0961609
0.0660619
0.0449298
0.0331815
0.0313358
0.0459125
0.0374066
0.0464274
0.086592
0.108526
0.069563
0.0565736
0.0628487
0.204289
0.111608
0.168088
0.0859756
0.337639
0.089365
0.378621
0.125835
0.289356
0.200892
0.446811
0.461343
0.1269
0.430053
0.207778
0.154402
0.554223
0.280736
0.502871
0.709648
0.180745
0.349524
0.271062
0.343163
0.22155
0.260756
0.33927
0.585515
0.308636
0.205682
0.281522
0.230397
0.280625
0.138658
0.168559
0.175594
0.170205
0.154669
0.118957
0.431757
0.123089
0.796321
0.10366
0.157661
0.113646
0.211738
0.217596
0.145503
0.0738414
0.142133
0.14905
0.197693
0.0727811
0.0979172
0.112099
0.0819859
0.066346
0.083324
0.130225
0.085804
0.0804494
0.0567398
0.0603147
0.103048
0.0837523
0.0650878
0.0678551
0.114405
0.0851202
0.0778798
0.0642851
0.194879
0.0577913
0.0845248
0.090152
0.0910494
0.110133
0.0606123
0.154862
0.0691404
0.0601422
0.075864
0.0837571
0.0540423
0.119076
0.062096
0.0616639
0.0826299
0.075292
0.0619934
0.0833496
0.053601
0.0473707
0.0587966
0.0635266
0.0720174
0.0843631
0.0477745
0.0623078
0.10409
0.0570875
0.0623129
0.0609565
0.218794
0.0608132
0.0652203
0.0455973
0.059717
0.0596983
0.0890909
0.0544929
0.050131
0.0558729
0.040409
0.0438926
0.123635
0.124099
0.0708607
0.0603764
0.0417565
0.0478843
0.452482
0.0822481
0.0727029
0.0426083
0.0530296
0.0515304
0.0447847
0.048231
0.0581742
0.0844543
0.0504942
0.0458608
0.0383449
0.0376191
0.0627766
0.0526856
0.047657
0.0395273
0.0380234
0.0409169
0.0580746
0.0738195
0.0436698
0.0362477
0.0405244
0.0673262
0.0873929
0.0657778
0.0491425
0.0566872
0.0528494
0.048522
0.0370222
0.0415789
0.0516937
0.0399442
0.0367722
0.0314217
0.0340343
0.0347399
0.136473
0.0655338
0.0561912
0.036226
0.0406555
0.0327954
0.0308396
0.0414099
0.0417203
0.032388
0.0865879
0.0491978
0.0509814
0.0376623
0.0358303
0.0396911
0.0334426
0.0281578
0.0305065
0.0832339
0.0541459
0.0760101
0.0619857
0.046811
0.0336756
0.0283872
0.0366282
0.0599984
0.0979068
0.060407
0.0604124
0.0610978
0.0742825
0.0380885
0.0345743
0.0297077
0.0270455
0.0425887
0.0559735
0.0506558
0.0438878
0.0363391
0.0273803
0.0260872
0.0309035
0.0541509
0.0399095
0.0384851
0.0294489
0.0258427
0.0272195
0.0544782
0.0391217
0.0387258
0.0366791
0.0296007
0.0271282
0.025667
0.0259339
0.0262963
0.0274148
0.0580949
0.0594349
0.0595371
0.0393453
0.0303265
0.0272273
0.0246512
0.0354046
0.0958985
0.0971004
0.0630574
0.0255138
0.024422
0.0436426
0.0635588
1
0.0825939
0.0660238
0.0512587
0.0272254
0.026453
0.0244917
0.0259937
0.028604
0.0538936
0.0621253
0.0605177
0.082142
0.0474019
0.041334
0.0309439
0.0236957
0.024365
0.0245175
0.0328701
0.0283877
0.0268914
0.024641
0.0237931
0.0233612
0.0245177
0.0446895
0.0641783
0.118041
0.0571281
0.0677914
0.0638497
0.0457253
0.0362098
0.0246971
0.0236115
0.0250764
0.162079
0.02526
0.0236931
0.0229969
0.0230942
0.0236935
0.0278362
0.0321183
0.721151
0.0691165
0.0566084
0.0657915
0.0811849
0.0968004
0.0394457
0.0242295
0.0253538
0.0646705
0.0557517
0.0327986
0.0282009
0.0266836
0.0253915
0.0232311
0.023867
0.0353328
0.0422315
0.0933054
0.0453916
0.0238679
0.0232458
0.0230936
0.0229047
0.0235163
0.0279668
0.0719968
0.0350974
0.0286967
0.0230041
0.0237725
0.025229
0.0464537
0.0847521
0.102044
0.0604202
0.0645212
0.0697486
0.0248779
0.0230467
0.0235394
0.023968
0.0302451
0.0410929
0.0261326
0.0235973
0.0228781
0.0227254
0.0228437
0.0230129
0.0243363
0.0247222
0.0264653
0.0373573
0.0983621
0.0280492
0.0237289
0.024488
0.0328352
0.0749472
0.135603
0.0945806
0.0315308
0.0239195
0.0226596
0.0252241
0.025921
0.0282091
0.0426654
0.0950302
0.0888515
0.0639426
0.0256419
0.0224288
0.0237643
0.025021
0.0258757
0.027001
0.0294534
0.0279914
0.0241511
0.0227973
0.0251045
0.0267381
0.0265322
0.0317285
0.0345406
0.0451863
0.0335547
0.0227743
0.0237216
0.0271665
0.0274638
0.0281766
0.0585055
0.0245696
0.0232513
0.0224234
0.0259091
0.0282018
0.0384083
0.281364
0.0848813
0.025915
0.0228031
0.0238696
0.0254265
0.0291524
0.0292455
0.0302117
0.0957713
0.148344
0.0882709
0.0300061
0.022762
0.0301912
0.0313736
0.030717
0.0293991
0.029408
0.0546685
0.0302541
0.0329328
0.0302463
0.115533
0.0266908
0.0237418
0.0228567
0.023427
0.0255397
0.0298202
0.0302014
0.0346586
0.0348474
0.0247808
0.0230548
0.0367953
0.0363643
0.033764
0.0918305
0.126172
0.149257
0.025777
0.0293504
0.0370413
0.0302091
0.0293102
0.0497237
0.132116
0.179
0.102389
0.0706871
0.0429046
0.0287611
0.0234377
0.0231956
0.0242224
0.0357793
0.0387516
0.0406544
0.0298598
0.0363584
0.0242426
0.0374071
0.0341742
0.0261271
0.0234105
0.0300258
0.0422127
0.0314533
0.0256714
0.0280299
0.0483548
0.0308222
0.144339
0.11879
0.0248056
0.02427
0.0387668
0.0351665
0.195223
0.0518044
0.0344023
0.0278648
0.0240913
0.0542213
0.0422552
0.0379273
0.0332553
0.036181
0.0532416
0.0501319
0.0524013
0.0711363
0.0248509
0.0250971
0.0315493
0.0585471
0.0332829
0.0418953
0.0306967
0.0270262
0.0271093
0.0365978
0.0258538
0.0252273
0.068168
0.0575101
0.0384547
0.258621
0.0293607
0.0258465
0.0279855
0.0322359
0.0450103
0.105967
0.178499
0.0273511
0.0263411
0.0499461
0.0380827
0.0379651
0.0435437
0.181703
0.0497275
0.0353218
0.13434
0.0862918
0.0264526
0.0303916
0.0708108
0.219241
0.0291705
0.0273424
0.085479
0.084852
0.048297
0.0714429
0.0269738
0.0280516
0.0462532
0.0536739
0.0419184
0.0408362
0.215706
0.0271326
0.0309035
0.151098
0.0400711
0.0281611
0.0372777
0.0525211
0.0575338
0.0294997
0.219779
0.0328694
0.0796599
0.0430272
0.0285255
0.0287458
0.0439281
0.259343
0.143586
0.0310196
0.0350118
0.0637912
0.0623333
0.0912762
0.0411382
0.0471374
0.115665
0.0310618
0.0932455
0.0485556
0.0917558
0.0324815
0.0362915
0.0543137
0.0457032
0.0444283
0.0575424
0.0352635
0.070756
0.18288
0.0320295
0.0446157
0.0452598
0.0880579
0.0493569
0.0532456
0.165025
0.0343891
0.0356298
0.175407
0.0408395
0.0662714
0.0855283
0.0421871
0.200631
0.0781795
0.108655
0.139668
0.0570033
0.0705494
0.0369943
0.0535837
0.042398
0.144166
0.0387738
0.0410599
0.0702668
0.110552
0.0859263
0.0529556
0.122038
0.583177
0.29829
0.0619709
0.040026
0.0445081
0.0881921
0.366442
0.121892
0.152059
0.0695229
0.128378
0.129547
0.293289
0.0473359
0.0403696
0.0935687
0.0492366
0.0867728
0.206447
0.094096
0.0916579
0.0644491
0.0421233
0.0416818
0.0536482
0.148442
0.327604
0.041192
0.0518878
0.153897
0.0524841
0.040964
0.0390375
0.10552
0.0891216
0.0632748
0.0392977
0.112838
0.068467
0.0369476
0.114459
0.104053
0.25712
0.2077
0.0477278
0.0426238
0.0687223
0.0707944
0.0374981
0.137442
0.0392422
0.0347357
0.0471509
0.114418
0.0345779
0.0697983
0.0882736
0.0540333
0.0426739
0.0332602
0.0350697
0.0842702
0.0967648
0.180773
0.0597567
0.0397274
0.0536165
0.0880889
0.0372202
0.140303
0.0871517
0.0343974
0.0343898
0.0602947
0.0658704
0.235376
0.0594067
0.161018
0.0370327
0.0388775
0.0583693
0.0960348
0.0558017
0.080237
0.0374608
0.0488859
0.204964
0.130913
0.0774001
0.0716279
0.0569184
0.13602
0.286965
0.24889
0.0409072
0.041648
0.0755268
0.0644453
0.117351
0.112883
0.297856
0.0832727
0.376792
0.0516125
0.03922
0.192058
0.199056
0.042093
0.0748152
0.0659108
0.0668738
0.0418783
0.0697752
0.161604
0.065722
0.0757854
0.075015
0.0769994
0.244392
0.0412208
0.0542598
0.0466686
0.159073
0.115999
0.193439
0.135549
0.0434439
0.0500857
0.124348
0.20254
0.115406
0.0753168
0.077648
0.125368
0.0468244
0.0680606
0.0554424
0.185784
0.0912168
0.0920873
0.0446213
0.0844253
0.112057
0.0981467
0.088505
0.0463254
0.054533
0.0499955
0.0450079
0.0521646
0.109768
0.0847086
0.0754906
0.109516
0.234481
0.146552
0.21799
0.142777
0.0899913
0.128781
0.0604716
0.0448875
0.0861316
0.137728
0.176381
0.0515916
0.0429221
0.116416
0.39134
0.0462374
0.0620278
0.0793381
0.163055
0.0684877
0.0729468
0.065799
0.04778
0.0957135
0.0460869
0.0450224
0.0941737
0.164615
0.0816235
0.0825323
0.057969
0.163809
0.0626432
0.0471511
0.0458735
0.0472573
0.0460353
0.16567
0.179427
0.0632788
0.088819
0.0603481
0.0473561
0.0489554
0.0510442
0.0692414
0.0917123
0.159095
0.0995391
0.14697
0.176283
0.0458661
0.0453898
0.0548636
0.0468834
0.0831724
0.0504253
0.0547844
0.0565995
0.061247
0.0371405
0.0620861
0.0470882
0.0638017
0.0449294
0.0382434
0.0529965
0.0460828
0.0953693
0.0330273
0.0677965
0.0455935
0.0892232
0.0575396
0.0739
0.0321079
0.0295982
0.101427
0.084481
0.0336979
0.123896
0.0463387
0.0519
0.0752134
0.063902
0.0819496
0.112753
0.0620804
0.0392488
0.028077
0.0938937
0.0526162
0.0792751
0.100291
0.119675
0.239097
0.0262969
0.0399153
0.0599619
0.143556
0.0282331
0.0263451
0.241684
0.112746
0.0300992
0.0311997
0.225311
0.179996
0.124911
0.0730963
0.0243222
0.0260215
0.0689512
0.0497756
0.0748619
0.158547
0.148015
0.0876802
0.070563
0.127311
0.0433528
0.0349992
0.0236652
0.0391188
0.153673
0.0483403
0.025355
0.0244274
0.0862518
0.0994038
0.0598964
0.023
0.0267729
0.0547511
0.103228
0.0448644
0.0470408
0.0255379
0.0326613
0.0537536
0.0837364
0.0841655
0.163014
0.0333648
0.0277405
0.0232247
0.0251891
0.0419858
0.0816151
0.0947838
0.0725264
0.0905203
0.0801732
0.130987
0.0560417
0.0530037
0.121019
0.0222328
0.0224631
0.0638666
0.134581
0.0790705
0.0392984
0.0330421
0.0266175
0.0241826
0.0241715
0.0313414
0.133499
0.0677367
0.0317969
0.0417315
0.0220166
0.0504688
0.0461751
0.0273297
0.0226465
0.0219245
0.0512969
0.132088
0.0694694
0.024367
0.0228772
0.0248817
0.0281191
0.0365627
0.0707692
0.0530503
0.124312
0.132423
0.112776
0.0631603
0.218967
0.0398195
0.0304262
0.0220481
0.103806
0.0711074
0.0676673
0.0662057
0.0311986
0.02654
0.0229751
0.0220537
0.0821153
0.0585569
0.127783
0.0520899
0.0753048
0.0259917
0.0403697
0.0363029
0.0239628
0.0265201
0.189683
0.0484341
0.0243727
0.0223558
0.0335478
0.138407
0.132108
0.0678699
0.0344844
0.0297389
0.0260193
0.0227389
0.0486236
0.047808
0.0579672
0.099043
0.199625
0.0521553
0.0210082
0.0268345
0.0359582
0.0222812
0.0237215
0.126691
0.138172
0.0449815
0.0815634
0.0352373
0.0242175
0.0258854
0.0289468
0.0364749
0.0689369
0.0889045
0.0437242
0.0293528
0.0317656
0.0230227
0.0223405
0.0229361
0.104736
0.0646265
0.0382327
0.110563
0.0235491
0.0340178
0.0275067
0.0223961
0.101912
0.0722453
0.0825701
0.0363319
0.13245
0.0197418
0.0313264
0.0245617
0.023406
0.0249118
0.0272319
0.031752
0.0501589
0.176243
0.0807016
0.0543824
0.0358517
0.0384366
0.0227318
0.0488764
0.0907913
0.0412494
0.0233339
0.0289796
0.0268481
0.0225065
0.046684
0.0692568
0.160255
0.0441819
0.0186953
0.0264074
0.0307273
0.0247598
0.023417
0.0230591
0.0241167
0.0271886
0.0357838
0.149884
0.0903707
0.162941
0.0443311
0.0548401
0.0292906
0.0227421
0.0594071
0.0925786
0.0910841
0.0355617
0.0211475
0.0270643
0.0254997
0.0236839
0.0230319
0.0228395
0.0249078
0.0291961
0.109171
0.0683999
0.0776318
0.0405886
0.0328098
0.0319608
0.0339139
0.0239952
0.0278369
0.0870894
0.0504446
0.055752
0.0585371
0.143671
0.0704831
0.154587
0.0262423
0.0233066
0.0234517
0.0242307
0.0328632
0.0487457
0.0352272
0.110751
0.0177332
0.0204196
0.0272091
0.0254013
0.0241121
0.0234772
0.0262054
0.0377615
0.0677885
0.111545
0.186254
0.0376482
0.0541966
0.0751218
0.0259234
0.0234164
0.0239722
0.0242488
0.0250676
0.0288361
0.069699
0.0491046
0.0409118
0.0168412
0.0257482
0.024018
0.0242659
0.0520038
0.0643016
0.0501335
0.0484162
0.0351304
0.0200381
0.0232719
0.025512
0.0252239
0.0683251
0.0702117
0.0331633
0.0234378
0.0237491
0.0243786
0.0254079
0.0264301
0.0287003
0.0343933
0.0415298
0.0504674
0.162851
0.0936881
0.0509544
0.0170802
0.024024
0.0247914
0.0240582
0.0235752
0.044909
0.0760775
0.0464852
0.0335423
0.0453014
0.0502238
0.105559
0.020183
0.0223042
0.024419
0.0267825
0.0308117
0.118748
0.0538769
0.122181
0.125863
0.0346807
0.0244361
0.0257954
0.0271183
0.0275914
0.027709
0.0289732
0.0358392
0.104113
0.0715224
0.0486208
0.0381795
0.0348612
0.0362491
0.0546087
0.0761034
0.0179274
0.0236609
0.0241068
0.0242001
0.0289524
0.0327384
0.0378819
0.0473142
0.0763739
0.0868204
0.0616114
0.0484133
0.138536
0.0658244
0.0204632
0.0224413
0.0247413
0.0242281
0.0296246
0.0476786
0.05177
0.169128
0.0343215
0.0362121
0.0249545
0.0246107
0.0259344
0.0272101
0.0287483
0.0309416
0.115135
0.0377568
0.0319824
0.0332411
0.0425862
0.0331161
0.0887648
0.0210647
0.0231913
0.0249749
0.0262339
0.0262814
0.0333785
0.0335592
0.040883
0.0543372
0.0841886
0.0582383
0.0551743
0.0337626
0.0334644
0.0366374
0.0400595
0.0271283
0.0268571
0.0285027
0.0349697
0.034897
0.0352743
0.137947
0.0522078
0.0381431
0.120945
0.0332332
0.0537414
0.046428
0.0445661
0.0449137
0.131331
0.0313491
0.0418433
0.0255056
0.0295148
0.0372848
0.0369344
0.0480664
0.0784423
0.0443291
0.0906031
0.0312404
0.030395
0.0303684
0.0311332
0.0953525
0.0305718
0.0355082
0.0399879
0.0823647
0.0577345
0.0455267
0.0332585
0.031237
0.0305991
0.0318202
0.0335223
0.0360849
0.0394803
0.0373374
0.073821
0.12696
0.0564066
0.209289
0.0689487
0.0263807
0.0431255
0.0350558
0.0451516
0.250872
0.0284971
0.0418859
0.0344414
0.0346321
0.0431289
0.0392799
0.0361196
0.0520824
0.0357381
0.0301205
0.0272704
0.0268966
0.0270374
0.0325482
0.0320424
0.0369599
0.0435368
0.0434133
0.0446799
0.178896
0.0668404
0.0446989
0.0539719
0.0720783
0.166023
0.0285621
0.0276702
0.0404378
0.0342926
0.050037
0.107704
0.0451155
0.0347555
0.0439998
0.0515528
0.0812254
0.0299119
0.0265326
0.0257304
0.0253738
0.0527323
0.031437
0.0383015
0.0405966
0.0383877
0.0362922
0.181059
0.0475711
0.0327413
0.0254853
0.0324307
0.0356832
0.0475864
0.095108
0.0770113
0.0474655
0.105191
0.0375282
0.0248284
0.0263874
0.0382783
0.080895
0.041759
0.0527105
0.0339338
0.0374724
0.0622252
0.127088
0.0639169
0.121625
0.0276701
0.0260876
0.0251536
0.0281099
0.0538247
0.0340814
0.0629834
0.0516189
0.0646592
0.0289272
0.0246444
0.0420589
0.0332828
0.0496176
0.0529404
0.0624029
0.0935909
0.024289
0.025455
0.0851778
0.030139
0.0358448
0.0492492
0.0506853
0.0367097
0.030577
0.0268076
0.0238714
0.0276889
0.0383632
0.0343458
0.0483861
0.0495502
0.0466209
0.0280469
0.0249773
0.0241691
0.023999
0.0301013
0.0388133
0.0574127
0.0528396
0.0361319
0.0377995
0.053986
0.034993
0.0398111
0.129742
0.0811273
0.0318896
0.0258386
0.0232071
0.0266305
0.059617
0.033835
0.132896
0.0745809
0.0497804
0.0887748
0.024364
0.0235353
0.0233755
0.0246782
0.037161
0.0287179
0.0447035
0.0528266
0.0342346
0.0330731
0.222178
0.138065
0.134589
0.0262466
0.0228395
0.0980141
0.0250701
0.0302679
0.036832
0.0371097
0.0499252
0.0794799
0.05255
0.0895206
0.152651
0.175028
0.0502992
0.0337105
0.0266482
0.0292764
0.0791159
0.0437552
0.0756149
0.169145
0.0270015
0.0243219
0.0225011
0.0229224
0.0479553
0.0585296
0.0373446
0.033471
0.118762
0.128115
0.0507203
0.155775
0.0231901
0.0224839
0.0242011
0.0246537
0.0526321
0.0366358
0.0702789
0.102947
0.0290953
0.0258998
0.0265958
0.0303542
0.0363761
0.0280581
0.0325028
0.162841
0.236611
0.0562676
0.0392634
0.0256398
0.0242001
0.0226609
0.0225943
0.0235519
0.0206914
0.040336
0.0459741
0.0347088
0.0870508
0.126496
0.0232059
0.0224629
0.0250564
0.0388027
0.035119
0.0428242
0.052887
0.0586805
0.0265946
0.0668001
0.0223684
0.0337007
0.0556016
0.0726954
0.0832356
0.029155
0.022733
0.0229232
0.0245914
0.0269117
0.0318839
0.0841329
0.0252696
0.0333101
0.0501643
0.0545393
0.109709
0.0397643
0.0250275
0.0235676
0.0237817
0.0438361
0.0184925
0.0404311
0.045781
0.0324767
0.0230861
0.0230311
0.0263079
0.0475873
0.0396914
0.0388237
0.114074
0.0576483
0.108975
0.121515
0.0260152
0.0240443
0.0236215
0.0251282
0.0212423
0.0238899
0.0287809
0.0339569
0.0339035
0.0783728
0.0947188
0.112162
0.0465354
0.0283801
0.0188275
0.0500155
0.0817646
0.0654552
0.057964
0.123383
0.0343786
0.0247686
0.0234033
0.023275
0.0237307
0.0291231
0.0405975
0.0552755
0.0600254
0.0733104
0.0586626
0.0250698
0.0274685
0.0342664
0.0174128
0.0191605
0.023126
0.0310299
0.0422522
0.0334091
0.0297595
0.026385
0.0234686
0.0745941
0.0264092
0.0393181
0.0365219
0.0350032
0.0578302
0.0355703
0.0248597
0.0240354
0.110143
0.0179394
0.0212047
0.0427584
0.0404958
0.0424462
0.172767
0.02416
0.0251434
0.0268655
0.0293599
0.0426824
0.0978924
0.0794688
0.0241013
0.0252248
0.0291531
0.0425975
0.0390434
0.0340591
0.0339175
0.0680207
0.0806394
0.0848483
0.0389179
0.0310321
0.0267122
0.0255295
0.0246413
0.0253499
0.027039
0.0597436
0.0183657
0.0200923
0.0394443
0.036982
0.05638
0.0790674
0.0281675
0.0249244
0.0313408
0.0353499
0.0411572
0.0940113
0.0235534
0.0419329
0.0471057
0.130795
0.051777
0.0540407
0.057505
0.0625208
0.0661076
0.0779039
0.0608395
0.0468602
0.0251967
0.0185015
0.031206
0.0378223
0.0369767
0.0348954
0.0338668
0.0355539
0.227459
0.0738061
0.0675626
0.0841404
0.0301835
0.0265864
0.0259068
0.0275632
0.0294202
0.0355805
0.0371224
0.163539
0.195399
0.0361616
0.0278156
0.0264839
0.0222419
0.0281503
0.0386422
0.124837
0.107972
0.0709414
0.0266002
0.0456193
0.0203759
0.0350609
0.0396731
0.0343835
0.0358349
0.0350794
0.0341349
0.0523742
0.0701373
0.0268292
0.0289403
0.0347244
0.0251361
0.0347582
0.0448614
0.0603068
0.0627238
0.0520892
0.0607005
0.0695806
0.0658255
0.0316194
0.0269853
0.0355517
0.0515582
0.0531065
0.0559634
0.0500672
0.0384098
0.028924
0.0275996
0.0454591
0.0655549
0.0980367
0.0229476
0.0299413
0.0387108
0.0327223
0.0348983
0.0360793
0.339286
0.0534099
0.0281133
0.0294932
0.0309264
0.0343962
0.0276387
0.040198
0.0342457
0.0413003
0.0879306
0.0505631
0.0512384
0.0518695
0.0501504
0.0312304
0.0259715
0.0377161
0.0355196
0.033019
0.0332637
0.0355887
0.224489
0.052708
0.0391317
0.0288248
0.0282885
0.0306315
0.0245537
0.0993568
0.0524005
0.0285161
0.0336036
0.0338325
0.0414268
0.0737261
0.0646809
0.0507479
0.0467637
0.0511067
0.050579
0.0433603
0.142694
0.0289521
0.0329567
0.0377433
0.0426098
0.0327762
0.0362145
0.0604899
0.0612935
0.0474311
0.0432489
0.0343397
0.0304105
0.0327584
0.0373603
0.0419832
0.0497078
0.0332227
0.0334161
0.0579569
0.0541657
0.0503294
0.0470924
0.0438573
0.0421905
0.0364308
0.032581
0.0312355
0.0367637
0.0395595
0.035052
0.170531
0.0471749
0.0459152
0.0314985
0.0851267
0.111771
0.0311447
0.0443443
0.0348167
0.0333857
0.0443591
0.0463154
0.0448468
0.0385737
0.0419221
0.0335696
0.187726
0.0470286
0.0452931
0.0440792
0.044257
0.041625
0.0408254
0.0355873
0.0337637
0.0462043
0.0342042
0.0580064
0.105485
0.0524601
0.0472205
0.0434284
0.0414348
0.0356468
0.0569508
0.14333
0.0384663
0.0337948
0.03798
0.239274
0.0896087
0.062477
0.0579932
0.0447752
0.0439083
0.050849
0.0369848
0.0831744
0.120264
0.07316
0.0449608
0.0416361
0.0395788
0.0326433
0.0433852
0.0333483
0.0446979
0.0403979
0.0408961
0.0350934
0.0451829
0.0349059
0.0333781
0.0356377
0.0587404
0.050009
0.0470827
0.0476355
0.042458
0.0452026
0.0462598
0.0957229
0.0589557
0.0404901
0.0355924
0.0689154
0.0586165
0.0525004
0.0329156
0.0324103
0.0325163
0.0541727
0.0554111
0.0722126
0.118895
0.0349713
0.0393741
0.0359943
0.0331815
0.0626784
0.0847779
0.0539019
0.0530539
0.0615133
0.0914533
0.0300238
0.0406098
0.0309178
0.030846
0.0355175
0.107879
0.0677282
0.0641539
0.0613994
0.0751214
0.0308529
0.0311244
0.0295818
0.0315696
0.0447928
0.11782
0.0339086
0.0354499
0.0324347
0.143762
0.0892192
0.070747
0.0286971
0.0330257
0.0751927
0.139344
0.0267733
0.035909
0.0352738
0.0289532
0.0273374
0.0292943
0.0899291
0.0766943
0.0293266
0.0874539
0.0820959
0.0783872
0.0304771
0.0266917
0.0349175
0.0631594
0.273493
0.0240251
0.0252109
0.0325713
0.0335331
0.0258761
0.173198
0.0975949
0.0915891
0.0288905
0.0256701
0.0267183
0.0307978
0.104753
0.225568
0.0275548
0.0281486
0.047381
0.0225667
0.0255593
0.0321958
0.0301877
0.0261656
0.0254207
0.0257555
0.141227
0.0278318
0.032128
0.0314982
0.0375808
0.118059
0.127312
0.109588
0.0285902
0.0286794
0.0751847
0.150571
0.0243822
0.0313228
0.027513
0.0264923
0.0262766
0.487507
0.119905
0.0211431
0.0291036
0.0316112
0.0273372
0.04533
0.120706
0.0266843
0.0341437
0.0341428
0.0308475
0.0302991
0.0348019
0.154243
0.0245061
0.0292328
0.0280723
0.266274
0.191605
0.18126
0.022669
0.0289241
0.0335442
0.036385
0.0337356
0.0310533
0.0368707
0.0400106
0.0302065
0.0474548
0.151461
0.0252447
0.0283099
0.0330134
0.041421
0.0337037
0.150114
0.0310118
0.0310839
0.033455
0.0657982
0.102431
0.158962