# vtk DataFile Version 1.0
Unstructured Grid Example
ASCII

DATASET UNSTRUCTURED_GRID
POINTS 1774 float
212 359 0
236 359 0
220 358 0
206 357 0
251 357 0
225 356 0
230 356 0
245 356 0
256 355 0
266 354 0
200 353 0
249 352 0
273 352 0
279 350 0
258 349 0
264 349 0
193 348 0
199 348 0
183 347 0
288 347 0
175 346 0
189 346 0
232 345 0
294 345 0
180 343 0
235 343 0
202 342 0
222 342 0
227 342 0
169 341 0
207 341 0
214 341 0
240 341 0
299 341 0
197 340 0
217 339 0
225 339 0
248 339 0
164 338 0
189 338 0
193 338 0
228 338 0
232 338 0
245 338 0
305 338 0
202 337 0
211 337 0
253 337 0
185 336 0
198 336 0
221 336 0
265 336 0
195 335 0
224 335 0
239 335 0
250 335 0
256 335 0
188 334 0
207 334 0
215 334 0
244 334 0
269 334 0
166 333 0
191 333 0
220 333 0
262 333 0
161 332 0
180 332 0
223 332 0
239 332 0
307 332 0
154 331 0
176 331 0
194 331 0
211 331 0
216 331 0
231 331 0
242 331 0
245 331 0
250 331 0
253 331 0
259 331 0
266 331 0
275 331 0
183 330 0
187 330 0
282 330 0
173 329 0
223 329 0
271 329 0
198 328 0
231 328 0
318 328 0
168 327 0
177 327 0
220 327 0
278 327 0
157 326 0
165 326 0
249 326 0
285 326 0
147 325 0
171 325 0
237 325 0
240 325 0
253 325 0
275 325 0
162 323 0
168 323 0
179 323 0
234 323 0
255 323 0
175 322 0
221 322 0
267 322 0
321 322 0
224 321 0
236 321 0
263 321 0
275 321 0
279 321 0
289 321 0
293 321 0
144 320 0
149 320 0
167 320 0
185 320 0
199 320 0
260 320 0
270 320 0
284 320 0
161 319 0
164 319 0
219 319 0
267 319 0
156 318 0
223 318 0
226 318 0
251 318 0
256 318 0
159 317 0
248 317 0
265 317 0
172 316 0
241 316 0
259 316 0
268 316 0
284 316 0
289 316 0
176 315 0
230 315 0
235 315 0
254 315 0
280 315 0
294 315 0
328 315 0
136 314 0
247 314 0
250 314 0
257 314 0
265 314 0
286 314 0
160 313 0
261 313 0
278 313 0
308 313 0
149 312 0
154 312 0
157 312 0
173 312 0
217 312 0
234 312 0
267 312 0
288 312 0
291 312 0
297 312 0
168 311 0
246 311 0
249 311 0
263 311 0
282 311 0
131 310 0
285 310 0
305 310 0
171 309 0
227 309 0
258 309 0
270 309 0
289 309 0
144 308 0
151 308 0
186 308 0
238 308 0
247 308 0
254 308 0
302 308 0
155 307 0
234 307 0
261 307 0
295 307 0
298 307 0
141 306 0
165 306 0
172 306 0
216 306 0
227 306 0
271 306 0
333 306 0
146 305 0
224 305 0
232 305 0
255 305 0
268 305 0
300 305 0
309 305 0
175 304 0
210 304 0
264 304 0
143 303 0
234 303 0
253 303 0
270 303 0
273 303 0
293 303 0
302 303 0
127 302 0
165 302 0
279 302 0
314 302 0
146 301 0
149 301 0
159 301 0
244 301 0
282 301 0
297 301 0
300 301 0
304 301 0
179 300 0
252 300 0
270 300 0
285 300 0
307 300 0
140 299 0
143 299 0
151 299 0
161 299 0
222 299 0
257 299 0
275 299 0
208 298 0
245 298 0
336 298 0
123 297 0
137 297 0
149 297 0
154 297 0
158 297 0
192 297 0
242 297 0
278 297 0
288 297 0
295 297 0
143 296 0
146 296 0
161 296 0
214 296 0
283 296 0
298 296 0
301 296 0
304 296 0
315 296 0
152 295 0
169 295 0
229 295 0
266 295 0
272 295 0
280 295 0
139 294 0
182 294 0
233 294 0
294 294 0
133 293 0
145 293 0
242 293 0
264 293 0
269 293 0
276 293 0
286 293 0
300 293 0
307 293 0
245 292 0
280 292 0
149 291 0
228 291 0
234 291 0
239 291 0
260 291 0
266 291 0
309 291 0
319 291 0
341 291 0
146 290 0
178 290 0
191 290 0
209 290 0
214 290 0
242 290 0
248 290 0
268 290 0
271 290 0
274 290 0
281 290 0
286 290 0
290 290 0
300 290 0
306 290 0
313 290 0
118 289 0
138 289 0
154 289 0
187 289 0
257 289 0
133 288 0
143 288 0
181 288 0
224 288 0
232 288 0
239 288 0
288 288 0
152 287 0
168 287 0
210 287 0
244 287 0
263 287 0
266 287 0
270 287 0
273 287 0
280 287 0
303 287 0
308 287 0
137 286 0
141 286 0
185 286 0
222 286 0
237 286 0
241 286 0
259 286 0
285 286 0
298 286 0
312 286 0
144 285 0
155 285 0
246 285 0
252 285 0
267 285 0
282 285 0
305 285 0
114 284 0
148 284 0
151 284 0
159 284 0
190 284 0
211 284 0
217 284 0
225 284 0
228 284 0
239 284 0
249 284 0
265 284 0
287 284 0
315 284 0
320 284 0
135 283 0
198 283 0
262 283 0
277 283 0
292 283 0
298 283 0
311 283 0
146 282 0
194 282 0
205 282 0
209 282 0
245 282 0
251 282 0
256 282 0
259 282 0
269 282 0
281 282 0
289 282 0
304 282 0
308 282 0
126 281 0
150 281 0
189 281 0
215 281 0
226 281 0
275 281 0
285 281 0
316 281 0
322 281 0
346 281 0
122 280 0
130 280 0
136 280 0
159 280 0
197 280 0
200 280 0
207 280 0
270 280 0
299 280 0
326 280 0
145 279 0
148 279 0
176 279 0
193 279 0
218 279 0
235 279 0
248 279 0
273 279 0
278 279 0
290 279 0
303 279 0
308 279 0
318 279 0
133 278 0
188 278 0
205 278 0
211 278 0
215 278 0
222 278 0
232 278 0
257 278 0
262 278 0
313 278 0
110 277 0
120 277 0
130 277 0
137 277 0
141 277 0
154 277 0
160 277 0
196 277 0
245 277 0
264 277 0
271 277 0
276 277 0
286 277 0
124 276 0
144 276 0
147 276 0
157 276 0
220 276 0
242 276 0
251 276 0
255 276 0
261 276 0
317 276 0
133 275 0
188 275 0
192 275 0
217 275 0
233 275 0
238 275 0
248 275 0
263 275 0
268 275 0
273 275 0
308 275 0
346 275 0
137 274 0
155 274 0
183 274 0
244 274 0
258 274 0
324 274 0
328 274 0
124 273 0
131 273 0
141 273 0
152 273 0
162 273 0
194 273 0
198 273 0
216 273 0
225 273 0
252 273 0
312 273 0
127 272 0
135 272 0
187 272 0
191 272 0
231 272 0
266 272 0
270 272 0
308 272 0
320 272 0
205 271 0
211 271 0
214 271 0
217 271 0
220 271 0
235 271 0
257 271 0
260 271 0
107 270 0
119 270 0
124 270 0
153 270 0
168 270 0
196 270 0
200 270 0
203 270 0
246 270 0
275 270 0
311 270 0
127 269 0
133 269 0
192 269 0
207 269 0
210 269 0
213 269 0
216 269 0
232 269 0
249 269 0
255 269 0
262 269 0
267 269 0
271 269 0
278 269 0
308 269 0
315 269 0
318 269 0
329 269 0
347 269 0
137 268 0
157 268 0
182 268 0
185 268 0
198 268 0
218 268 0
221 268 0
244 268 0
321 268 0
124 267 0
129 267 0
161 267 0
206 267 0
214 267 0
274 267 0
119 266 0
212 266 0
216 266 0
230 266 0
252 266 0
261 266 0
301 266 0
314 266 0
127 265 0
156 265 0
170 265 0
181 265 0
184 265 0
208 265 0
220 265 0
227 265 0
233 265 0
246 265 0
264 265 0
310 265 0
111 264 0
135 264 0
139 264 0
142 264 0
149 264 0
161 264 0
191 264 0
194 264 0
197 264 0
204 264 0
211 264 0
222 264 0
269 264 0
273 264 0
304 264 0
316 264 0
153 263 0
174 263 0
201 263 0
217 263 0
231 263 0
251 263 0
349 263 0
119 262 0
132 262 0
157 262 0
205 262 0
209 262 0
219 262 0
223 262 0
278 262 0
284 262 0
296 262 0
160 261 0
170 261 0
180 261 0
191 261 0
194 261 0
197 261 0
227 261 0
235 261 0
267 261 0
303 261 0
306 261 0
310 261 0
314 261 0
317 261 0
105 260 0
121 260 0
141 260 0
151 260 0
210 260 0
221 260 0
253 260 0
259 260 0
270 260 0
275 260 0
136 259 0
176 259 0
183 259 0
201 259 0
208 259 0
216 259 0
225 259 0
250 259 0
256 259 0
300 259 0
110 258 0
114 258 0
133 258 0
144 258 0
172 258 0
205 258 0
214 258 0
233 258 0
294 258 0
324 258 0
126 257 0
130 257 0
167 257 0
199 257 0
253 257 0
261 257 0
306 257 0
311 257 0
314 257 0
135 256 0
181 256 0
203 256 0
214 256 0
217 256 0
225 256 0
273 256 0
303 256 0
117 255 0
120 255 0
124 255 0
128 255 0
213 255 0
288 255 0
292 255 0
309 255 0
327 255 0
351 255 0
148 254 0
168 254 0
172 254 0
231 254 0
106 253 0
136 253 0
195 253 0
203 253 0
210 253 0
215 253 0
222 253 0
314 253 0
124 252 0
200 252 0
233 252 0
242 252 0
322 252 0
115 251 0
170 251 0
208 251 0
227 251 0
230 251 0
284 251 0
147 250 0
173 250 0
248 250 0
260 250 0
314 250 0
319 250 0
165 249 0
201 249 0
232 249 0
245 249 0
324 249 0
101 248 0
143 248 0
207 248 0
211 248 0
240 248 0
302 248 0
316 248 0
354 248 0
106 247 0
119 247 0
137 247 0
154 247 0
178 247 0
298 247 0
321 247 0
203 246 0
230 246 0
233 246 0
247 246 0
305 246 0
318 246 0
326 246 0
330 246 0
116 245 0
159 245 0
211 245 0
250 245 0
163 244 0
207 244 0
227 244 0
204 243 0
223 243 0
231 243 0
234 243 0
241 243 0
247 243 0
302 243 0
308 243 0
318 243 0
114 242 0
187 242 0
210 242 0
220 242 0
322 242 0
174 241 0
198 241 0
207 241 0
215 241 0
229 241 0
316 241 0
97 240 0
181 240 0
191 240 0
195 240 0
218 240 0
226 240 0
238 240 0
262 240 0
325 240 0
333 240 0
356 240 0
112 239 0
118 239 0
130 239 0
188 239 0
200 239 0
210 239 0
243 239 0
250 239 0
176 238 0
214 238 0
240 238 0
246 238 0
297 238 0
314 238 0
322 238 0
328 238 0
194 237 0
203 237 0
206 237 0
222 237 0
230 237 0
234 237 0
255 237 0
119 236 0
186 236 0
189 236 0
218 236 0
249 236 0
294 236 0
116 235 0
132 235 0
161 235 0
196 235 0
232 235 0
305 235 0
325 235 0
122 234 0
181 234 0
199 234 0
203 234 0
220 234 0
229 234 0
270 234 0
330 234 0
335 234 0
110 233 0
185 233 0
226 233 0
237 233 0
240 233 0
313 233 0
316 233 0
321 233 0
97 232 0
256 232 0
291 232 0
298 232 0
306 232 0
107 231 0
125 231 0
133 231 0
161 231 0
195 231 0
206 231 0
230 231 0
252 231 0
266 231 0
303 231 0
324 231 0
329 231 0
357 231 0
144 230 0
170 230 0
189 230 0
198 230 0
202 230 0
226 230 0
233 230 0
270 230 0
316 230 0
334 230 0
112 229 0
193 229 0
255 229 0
262 229 0
305 229 0
313 229 0
109 228 0
196 228 0
218 228 0
231 228 0
252 228 0
259 228 0
292 228 0
206 227 0
225 227 0
237 227 0
264 227 0
267 227 0
272 227 0
303 227 0
307 227 0
330 227 0
106 226 0
118 226 0
149 226 0
166 226 0
194 226 0
211 226 0
214 226 0
220 226 0
276 226 0
314 226 0
202 225 0
217 225 0
223 225 0
228 225 0
253 225 0
285 225 0
334 225 0
95 224 0
113 224 0
140 224 0
205 224 0
235 224 0
247 224 0
270 224 0
305 224 0
327 224 0
359 224 0
110 223 0
152 223 0
199 223 0
209 223 0
219 223 0
227 223 0
260 223 0
273 223 0
277 223 0
309 223 0
119 222 0
189 222 0
193 222 0
196 222 0
212 222 0
230 222 0
249 222 0
264 222 0
268 222 0
281 222 0
325 222 0
331 222 0
336 222 0
113 221 0
203 221 0
215 221 0
237 221 0
271 221 0
284 221 0
317 221 0
328 221 0
106 220 0
110 220 0
126 220 0
159 220 0
206 220 0
210 220 0
217 220 0
229 220 0
233 220 0
240 220 0
244 220 0
258 220 0
276 220 0
306 220 0
116 219 0
201 219 0
212 219 0
224 219 0
227 219 0
254 219 0
263 219 0
330 219 0
119 218 0
162 218 0
170 218 0
188 218 0
194 218 0
197 218 0
205 218 0
231 218 0
248 218 0
251 218 0
281 218 0
284 218 0
309 218 0
326 218 0
334 218 0
129 217 0
150 217 0
191 217 0
203 217 0
208 217 0
215 217 0
223 217 0
233 217 0
237 217 0
244 217 0
258 217 0
265 217 0
271 217 0
275 217 0
316 217 0
319 217 0
322 217 0
339 217 0
346 217 0
112 216 0
178 216 0
201 216 0
[...]
CELL_DATA 1774
COLOR_SCALARS lut 1
0.270228
0.261641
0.247764
0.259691
0.2393
0.22875
0.230167
0.221498
0.2335
0.245162
0.233175
0.196163
0.249915
0.259931
0.200314
0.207321
0.205121
0.195093
0.235195
0.274372
0.261063
0.19975
0.176019
0.283286
0.205341
0.166407
0.169377
0.165123
0.163422
0.226301
0.171129
0.168997
0.159308
0.271099
0.158892
0.157072
0.152322
0.158039
0.222606
0.158831
0.155356
0.149063
0.147742
0.150242
0.28018
0.157657
0.159933
0.162816
0.159172
0.154046
0.146043
0.188917
0.153541
0.144211
0.14009
0.14765
0.162308
0.15538
0.162598
0.153101
0.138243
0.18666
0.171885
0.156348
0.145051
0.1674
0.186003
0.156477
0.143298
0.135455
0.257648
0.23404
0.154834
0.162863
0.167725
0.155178
0.140054
0.13355
0.133513
0.136745
0.141295
0.152918
0.166125
0.179954
0.157024
0.161219
0.18823
0.149618
0.145371
0.164544
0.179623
0.139645
0.299499
0.144571
0.150289
0.152773
0.164328
0.169483
0.144268
0.130148
0.178681
0.244241
0.142554
0.133572
0.132421
0.130617
0.153208
0.142966
0.139722
0.157671
0.135688
0.128993
0.147905
0.155321
0.136872
0.281528
0.148001
0.133548
0.131317
0.142641
0.145126
0.170554
0.189066
0.231559
0.186715
0.139259
0.188651
0.230058
0.127179
0.136077
0.149997
0.140233
0.138811
0.164524
0.13128
0.147701
0.149762
0.14299
0.123902
0.122575
0.141017
0.125975
0.127016
0.148142
0.130547
0.121728
0.129834
0.141418
0.149754
0.160648
0.135092
0.130535
0.120576
0.138734
0.159097
0.329438
0.26137
0.126139
0.122967
0.120009
0.125043
0.140309
0.139245
0.121296
0.138587
0.194618
0.152916
0.141238
0.138946
0.15479
0.17677
0.1305
0.126845
0.138511
0.14141
0.153243
0.146054
0.127669
0.124469
0.122334
0.136505
0.270921
0.135194
0.167155
0.152254
0.139488
0.12054
0.130772
0.134016
0.160018
0.138929
0.219436
0.131143
0.128054
0.121928
0.148938
0.135527
0.131838
0.121973
0.13279
0.136632
0.167806
0.1443
0.156617
0.175335
0.140103
0.130567
0.376464
0.143406
0.146655
0.13417
0.123769
0.126082
0.134562
0.164914
0.166501
0.201988
0.123588
0.148235
0.134144
0.126625
0.1265
0.129128
0.125309
0.133449
0.249664
0.146946
0.12827
0.187349
0.134813
0.130957
0.138131
0.132392
0.125746
0.12344
0.126175
0.133603
0.177146
0.129748
0.123669
0.123726
0.140505
0.148887
0.138177
0.12909
0.143259
0.14991
0.128136
0.123689
0.189294
0.132066
0.337593
0.26346
0.156672
0.127652
0.132139
0.139628
0.209587
0.132105
0.120686
0.120654
0.120268
0.132813
0.128131
0.147273
0.161531
0.119468
0.120141
0.121842
0.125662
0.17151
0.12986
0.162092
0.135606
0.121217
0.119127
0.118616
0.140712
0.170072
0.131567
0.120527
0.165142
0.126774
0.12964
0.121449
0.118171
0.117672
0.119297
0.12027
0.127888
0.129714
0.117749
0.126544
0.130729
0.127722
0.127525
0.124021
0.118184
0.130116
0.181777
0.302078
0.125024
0.166798
0.171291
0.15801
0.144847
0.127114
0.129276
0.116562
0.116252
0.116744
0.118753
0.120956
0.122936
0.121104
0.123703
0.141808
0.260808
0.135308
0.135351
0.16077
0.125247
0.150913
0.125751
0.162753
0.129084
0.125142
0.124984
0.124425
0.130695
0.17105
0.144013
0.124976
0.117069
0.115525
0.11553
0.116796
0.121071
0.122393
0.124755
0.133836
0.127018
0.156249
0.126944
0.123603
0.123968
0.119709
0.126073
0.126441
0.131499
0.124902
0.137838
0.123643
0.12393
0.114796
0.125855
0.123522
0.264454
0.126048
0.129205
0.151272
0.149791
0.132605
0.126251
0.123193
0.122897
0.123171
0.123117
0.114706
0.132117
0.137807
0.161924
0.13477
0.151627
0.115511
0.124087
0.137756
0.1332
0.127192
0.126475
0.145734
0.138857
0.131105
0.122455
0.121945
0.119687
0.117266
0.116029
0.131715
0.140018
0.128091
0.125616
0.159307
0.129406
0.14439
0.122652
0.121342
0.124281
0.139955
0.136774
0.16464
0.2685
0.174171
0.141983
0.130757
0.150604
0.140206
0.139267
0.129815
0.118224
0.141631
0.187804
0.129079
0.129846
0.173782
0.137541
0.119952
0.122884
0.122131
0.123768
0.1343
0.153805
0.137089
0.129182
0.140927
0.132901
0.141453
0.128406
0.122096
0.119864
0.1196
0.122354
0.119097
0.115957
0.129582
0.249513
0.171273
0.136266
0.129611
0.130016
0.135958
0.151617
0.132469
0.123943
0.116262
0.122786
0.134125
0.158796
0.150071
0.132406
0.133222
0.141682
0.118758
0.125974
0.123098
0.12157
0.117435
0.135808
0.130462
0.137487
0.131314
0.118186
0.123836
0.126684
0.124523
0.11762
0.120446
0.129855
0.135908
0.247795
0.12993
0.137554
0.148836
0.127409
0.120873
0.162929
0.188637
0.141993
0.130001
0.133341
0.13623
0.152361
0.127296
0.124842
0.117287
0.1205
0.125239
0.132822
0.133538
0.129007
0.136943
0.129942
0.124422
0.121483
0.126998
0.139744
0.144507
0.118752
0.116797
0.116328
0.116571
0.117407
0.129096
0.124133
0.122054
0.236761
0.1513
0.136295
0.137849
0.159313
0.123656
0.12067
0.118908
0.131872
0.143641
0.135429
0.130281
0.12757
0.128351
0.116681
0.115966
0.115509
0.115694
0.12741
0.130854
0.12742
0.123631
0.126296
0.133249
0.15703
0.140948
0.13547
0.140617
0.200196
0.257921
0.129996
0.140114
0.144172
0.139609
0.121467
0.115928
0.117259
0.13754
0.152189
0.133012
0.127747
0.145252
0.116193
0.114939
0.14488
0.143347
0.114815
0.115053
0.126242
0.133106
0.128623
0.162265
0.136581
0.129092
0.14106
0.151017
0.144316
0.142247
0.115438
0.116381
0.122401
0.132042
0.141
0.131694
0.137198
0.174702
0.128992
0.132073
0.135308
0.140278
0.146357
0.136089
0.130343
0.124935
0.117031
0.114902
0.117609
0.140333
0.148655
0.148698
0.140686
0.14168
0.147228
0.120117
0.115553
0.129128
0.138871
0.279103
0.139329
0.12971
0.145727
0.117144
0.11569
0.116546
0.11875
0.168487
0.180829
0.170455
0.149535
0.147473
0.146368
0.143285
0.13626
0.129172
0.123318
0.139944
0.148454
0.147266
0.140618
0.136496
0.138409
0.144542
0.224455
0.135596
0.136317
0.144842
0.116435
0.118468
0.143302
0.142948
0.158234
0.168516
0.134834
0.146168
0.152252
0.12411
0.117606
0.117575
0.121964
0.14727
0.145007
0.152975
0.171838
0.151506
0.136245
0.141628
0.146521
0.120105
0.118095
0.136536
0.168156
0.177192
0.137468
0.138358
0.151613
0.131326
0.149944
0.156207
0.139318
0.136635
0.138487
0.141454
0.156372
0.124617
0.120329
0.121098
0.124253
0.189074
0.1445
0.14379
0.140486
0.141093
0.143374
0.121333
0.185469
0.174355
0.137775
0.195558
0.293563
0.154587
0.15348
0.150218
0.133814
0.19821
0.151193
0.151501
0.12821
0.123412
0.124709
0.125906
0.138371
0.149329
0.136186
0.137709
0.151755
0.155817
0.152259
0.155179
0.12606
0.13002
0.133222
0.216574
0.166025
0.1552
0.154075
0.184101
0.137904
0.142497
0.163549
0.136576
0.135339
0.149666
0.158587
0.237517
0.172392
0.129266
0.129404
0.143645
0.151377
0.137003
0.310692
0.190758
0.155066
0.176073
0.17998
0.160436
0.164487
0.142543
0.133346
0.131428
0.133478
0.148471
0.146189
0.136226
0.161264
0.190387
0.157128
0.180029
0.130812
0.154157
0.175942
0.130315
0.128107
0.131083
0.127601
0.128312
0.129929
0.135931
0.144256
0.15296
0.142186
0.133424
0.160185
0.158085
0.130688
0.128526
0.137577
0.16827
0.136704
0.129785
0.131236
0.12525
0.13211
0.262405
0.159354
0.147336
0.140059
0.129251
0.124143
0.129564
0.193059
0.143741
0.195199
0.323748
0.162312
0.155768
0.183688
0.150054
0.131355
0.131182
0.134711
0.144819
0.170932
0.132299
0.130832
0.138035
0.166682
0.131751
0.134077
0.153504
0.136668
0.128902
0.129528
0.125202
0.122633
0.124585
0.1529
0.153512
0.15152
0.144853
0.129766
0.140479
0.177049
0.151273
0.185314
0.193198
0.132289
0.123
0.139983
0.138533
0.157175
0.168118
0.129394
0.128698
0.127596
0.121787
0.199435
0.157129
0.195437
0.158467
0.157158
0.121968
0.128022
0.13264
0.129031
0.127863
0.130644
0.244606
0.142752
0.179541
0.15292
0.135175
0.166619
0.165363
0.18694
0.186763
0.132149
0.128861
0.121373
0.137971
0.163006
0.139531
0.134275
0.147538
0.291911
0.19911
0.187462
0.146474
0.128661
0.126984
0.120704
0.123098
0.169481
0.127152
0.174827
0.148589
0.135559
0.135237
0.143374
0.134926
0.127235
0.154942
0.130192
0.125492
0.120489
0.134022
0.135803
0.16457
0.12481
0.118834
0.126942
0.139093
0.144466
0.155378
0.138932
0.131571
0.146275
0.166121
0.147682
0.187446
0.176911
0.133142
0.125659
0.125522
0.120958
0.158351
0.126615
0.12343
0.122128
0.118117
0.117496
0.129126
0.163273
0.16202
0.261185
0.143822
0.197031
0.121684
0.122046
0.133391
0.136846
0.135426
0.135375
0.290452
0.149511
0.177511
0.12462
0.12112
0.118598
0.116568
0.125544
0.137174
0.143827
0.129025
0.147955
0.144545
0.132903
0.127596
0.120458
0.117381
0.129496
0.125516
0.128226
0.145769
0.131024
0.142689
0.166533
0.143405
0.120166
0.118818
0.12243
0.128247
0.145526
0.125091
0.13393
0.169321
0.150782
0.176218
0.166791
0.118307
0.118384
0.117253
0.116737
0.118659
0.125237
0.128951
0.122161
0.130775
0.133291
0.143017
0.120095
0.117692
0.115511
0.116027
0.123024
0.121551
0.135991
0.147919
0.164489
0.164858
0.139444
0.125964
0.12251
0.117133
0.117422
0.12646
0.124523
0.13173
0.135771
0.127032
0.127922
0.148041
0.194738
0.179781
0.129526
0.117244
0.116037
0.115962
0.11506
0.118059
0.119957
0.125378
0.120536
0.120083
0.120797
0.122751
0.121366
0.12198
0.123543
0.173742
0.229678
0.149601
0.157703
0.117513
0.115549
0.114941
0.114723
0.11588
0.122167
0.119918
0.137554
0.129125
0.13563
0.285488
0.168263
0.156107
0.175478
0.16366
0.157611
0.118964
0.115317
0.123311
0.121988
0.124931
0.137103
0.130856
0.153566
0.147966
0.175243
0.116185
0.114543
0.114301
0.114374
0.115425
0.116522
0.121162
0.119463
0.119101
0.118444
0.118495
0.128878
0.120739
0.152844
0.147087
0.123812
0.117297
0.114206
0.120662
0.119891
0.11917
0.140201
0.331595
0.129674
0.118479
0.11314
0.113802
0.117275
0.118864
0.11833
0.117791
0.118789
0.131336
0.134802
0.131628
0.118499
0.122415
0.179958
0.147898
0.134028
0.113199
0.114086
0.11708
0.119065
0.119491
0.117577
0.125352
0.118056
0.12822
0.177908
0.118046
0.113633
0.112239
0.115487
0.117773
0.117836
0.11816
0.118157
0.116927
0.117387
0.119314
0.140723
0.16015
0.114068
0.112268
0.116131
0.116736
0.11948
0.127075
0.125559
0.153611
0.295375
0.166547
0.111921
0.11512
0.116407
0.117033
0.119795
0.117338
0.118953
0.187672
0.205939
0.125696
0.116578
0.11128
0.111268
0.115573
0.115706
0.11603
0.117883
0.118293
0.11737
0.119465
0.126111
0.120408
0.115914
0.121563
0.180222
0.111414
0.111034
0.111572
0.112125
0.113597
0.120918
0.120241
0.123431
0.124961
0.116453
0.142428
0.16385
0.115286
0.111292
0.11287
0.11741
0.115508
0.116306
0.118396
0.117152
0.115196
0.17398
0.117544
0.110647
0.111098
0.115533
0.117813
0.119759
0.122598
0.121098
0.114937
0.118864
0.365324
0.195424
0.177117
0.162946
0.136016
0.129913
0.111493
0.11065
0.110815
0.110891
0.112446
0.11763
0.118941
0.117898
0.115464
0.120814
0.11672
0.121881
0.118141
0.11556
0.155448
0.18829
0.112469
0.111571
0.116415
0.115871
0.117264
0.114667
0.122566
0.235341
0.139401
0.116437
0.110742
0.110441
0.111318
0.115627
0.121737
0.115293
0.119704
0.116168
0.117251
0.118838
0.119886
0.114589
0.115265
0.127559
0.187356
0.120256
0.109706
0.12158
0.11812
0.115616
0.115436
0.116677
0.118294
0.120251
0.115144
0.14684
0.151568
0.130514
0.115748
0.109547
0.110822
0.111493
0.113362
0.115787
0.120432
0.115315
0.118232
0.116421
0.115829
0.120393
0.115828
0.11598
0.222422
0.305859
0.121399
0.111645
0.109674
0.110305
0.122226
0.11553
0.117845
0.128147
0.137892
0.200593
0.133554
0.115383
0.109415
0.112367
0.114372
0.131158
0.121771
0.115939
0.116975
0.116176
0.11937
0.120169
0.116641
0.115766
0.118218
0.160164
0.156892
0.139428
0.126752
0.116621
0.112347
0.110568
0.129557
0.115351
0.114712
0.116461
0.11545
0.118356
0.116287
0.190951
0.109775
0.109429
0.110975
0.114915
0.12808
0.115517
0.11524
0.118782
0.127062
0.150108
0.128742
0.121752
0.116316
0.113984
0.110802
0.110284
0.142768
0.116286
0.114599
0.114121
0.11445
0.115256
0.119607
0.120784
0.120806
0.117799
0.117908
0.135657
0.349638
0.196033
0.148152
0.117333
0.111313
0.113431
0.116338
0.124913
0.142489
0.14745
0.118467
0.115434
0.118152
0.120136
0.172113
0.262686
0.137551
0.122339
0.11478
0.110463
0.110062
0.112983
0.140894
0.114043
0.11466
0.116673
0.121056
0.155532
0.127497
0.117161
0.112573
0.11097
0.116539
0.139927
0.115936
0.11325
0.113446
0.115651
0.12383
0.122663
0.123096
0.129199
0.144301
0.200839
0.118279
0.113645
0.11155
0.113748
0.115085
0.11614
0.120711
0.126034
0.142319
0.119701
0.114002
0.115685
0.117187
0.124584
0.125451
0.13588
0.120583
0.115823
0.130567
0.11291
0.114719
0.11621
0.127427
0.230439
0.180094
0.125829
0.112032
0.111173
0.115665
0.119387
0.141429
0.124488
0.113228
0.115605
0.11702
0.117438
0.11148
0.112318
0.160008
0.115053
0.113002
0.12967
0.133289
0.133604
0.173015
0.199506
0.120983
0.115417
0.111761
0.111685
0.12027
0.128946
0.141555
0.160611
0.117367
0.113355
0.116616
0.118842
0.121503
0.136966
0.243176
0.360307
0.261726
0.117376
0.125085
0.1401
0.117748
0.12768
0.137799
0.171762
0.135599
0.125598
0.118208
0.116109
0.112563
0.113294
0.113678
0.113699
0.11914
0.135626
0.152732
0.152235
0.115058
0.11251
0.11302
0.133912
0.158805
0.128835
0.122055
0.115912
0.114389
0.121956
0.126258
0.117144
0.114194
0.113084
0.112832
0.124913
0.114211
0.245957
0.140523
0.120978
0.116005
0.112855
0.113375
0.11695
0.152116
0.141747
0.116351
0.114595
0.12017
0.142949
0.148785
0.154419
0.157004
0.207991
0.23099
0.199535
0.127283
0.115008
0.112994
0.114415
0.131305
0.139049
0.12899
0.122755
0.115488
0.116264
0.125109
0.203524
0.120477
0.175271
0.119654
0.11555
0.132129
0.160913
0.142157
0.124931
0.121162
0.116849
0.113582
0.184771
0.115847
0.124419
0.168479
0.115778
0.113499
0.134789
0.117582
0.117283
0.409635
0.131049
0.11417
0.140617
0.121726
0.117161
0.121365
0.131938
0.148456
0.169406
0.200044
0.139002
0.120098
0.114011
0.117454
0.11847
0.187175
0.18722
0.218576
0.12304
0.117052
0.11478
0.172509
0.12209
0.119926
0.133066
0.14754
0.126683
0.114085
0.1143
0.118835
0.122942
0.150125
0.138484
0.118329
0.114153
0.141165
0.121348
0.219357
0.196122
0.190295
0.132732
0.120094
0.11685
0.174627
0.136481
0.125592
0.130255
0.150103
0.172949
0.186444
0.1259
0.114947
0.114416
0.115967
0.129162
0.124727
0.140168
0.118049
0.116084
0.126887
0.263318
0.128577
0.118723
0.116865
0.115423
0.11729
0.125926
0.165962
0.139658
0.127709
0.140336
0.178617
0.134981
0.11533
0.115293
0.11658
0.135821
0.131113
0.153898
0.277496
0.150927
0.118555
0.123478
0.13909
0.132307
0.165691
0.125085
0.120944
0.129428
0.178558
0.138219
0.145193
0.13856
0.135025
0.128001
0.117798
0.11628
0.116743
0.163751
0.176615
0.172709
0.118121
0.141969
0.240534
0.142533
0.128033
0.12425
0.120579
0.117702
0.124291
0.136406
0.156794
0.131283
0.117439
0.117783
0.129951
0.145673
0.161011
0.133767
0.122459
0.122952
0.15341
0.167543
0.147933
0.623146
0.164015
0.141504
0.12675
0.120938
0.119533
0.120499
0.1216
0.176425
0.151955
0.134717
0.11971
0.120019
0.13409
0.145065
0.17898
0.207631
0.130542
0.127444
0.126537
0.216032
0.175524
0.167218
0.250688
0.163445
0.137626
0.123545
0.12694
0.147217
0.123473
0.127791
0.282681
0.256252
0.198575
0.188543
0.186355
0.142418
0.129698
0.128337
0.141718
0.193026
0.177965
0.177127
0.13883
0.132816
0.130182
0.157424
0.166727
0.15315
0.14214
0.244405
0.224625
0.264579
0.139559
0.133376
0.131572
0.130257
0.130546
0.229579
0.256845
0.139852
0.137785
0.135476
0.139703
0.266196
0.226996
0.155071
0.140036
0.137666
0.225338
0.22557
0.192595
0.173771
0.155112
0.138917
0.137659
0.139204
0.153203
0.165657
0.234128
0.173928
0.150482
0.204212
0.149473
0.166114
0.162481
0.153384
0.208264
0.186096
0.237879
0.171049
0.226852
0.231796
0.378435
0.341534
0.189992
0.851734
0.244175
0.244303
0.224978
0.278219
0.354276
0.466437
0.446091
0.840226
0.801725
0.64888
0.66578
0.878259
0.377462
0.687619
0.365505
0.845968
1
0.409843
0.307835
0.332973
0.321736
0.309828
0.278876
0.357443
0.279615
0.909678
0.299531
0.199801
0.189689
0.930301
0.187336
0.213913
0.382658
0.272814
0.18361
0.905275
0.18996
0.206286
0.28912
0.208606
0.266302
0.834328
0.256063
0.345177
0.240879
0.314246
0.868059
0.229394
0.319232
0.236434
0.404651
0.229672
0.26649
0.255085
0.568695
0.275567
0.535579
0.481719
0.289562
0.367524
0.279363
0.346858
0.362962
0.344401
0.302305
0.320567
0.291878
0.269827
0.310343
0.217807
