# vtk DataFile Version 1.0
Unstructured Grid Example
ASCII

DATASET UNSTRUCTURED_GRID
POINTS 13854 float
232 360 0
233 360 0
234 360 0
235 360 0
246 360 0
247 360 0
207 359 0
208 359 0
209 359 0
210 359 0
211 359 0
212 359 0
213 359 0
220 359 0
221 359 0
222 359 0
231 359 0
232 359 0
235 359 0
236 359 0
237 359 0
240 359 0
241 359 0
242 359 0
246 359 0
247 359 0
206 358 0
207 358 0
208 358 0
213 358 0
214 358 0
220 358 0
221 358 0
222 358 0
231 358 0
236 358 0
237 358 0
238 358 0
239 358 0
240 358 0
241 358 0
242 358 0
246 358 0
247 358 0
250 358 0
251 358 0
206 357 0
207 357 0
214 357 0
215 357 0
216 357 0
217 357 0
218 357 0
219 357 0
220 357 0
221 357 0
222 357 0
228 357 0
229 357 0
230 357 0
231 357 0
242 357 0
243 357 0
244 357 0
246 357 0
247 357 0
248 357 0
249 357 0
250 357 0
251 357 0
206 356 0
219 356 0
220 356 0
221 356 0
222 356 0
223 356 0
224 356 0
225 356 0
228 356 0
229 356 0
230 356 0
231 356 0
232 356 0
233 356 0
244 356 0
245 356 0
246 356 0
248 356 0
249 356 0
251 356 0
252 356 0
253 356 0
254 356 0
255 356 0
256 356 0
269 356 0
270 356 0
271 356 0
272 356 0
273 356 0
199 355 0
200 355 0
201 355 0
202 355 0
203 355 0
204 355 0
205 355 0
206 355 0
225 355 0
228 355 0
231 355 0
232 355 0
233 355 0
251 355 0
252 355 0
253 355 0
256 355 0
257 355 0
258 355 0
262 355 0
263 355 0
264 355 0
269 355 0
270 355 0
271 355 0
273 355 0
274 355 0
275 355 0
276 355 0
196 354 0
197 354 0
198 354 0
199 354 0
200 354 0
225 354 0
226 354 0
227 354 0
228 354 0
251 354 0
252 354 0
253 354 0
257 354 0
258 354 0
259 354 0
260 354 0
262 354 0
264 354 0
265 354 0
266 354 0
267 354 0
271 354 0
272 354 0
273 354 0
274 354 0
275 354 0
276 354 0
277 354 0
196 353 0
197 353 0
198 353 0
199 353 0
200 353 0
251 353 0
252 353 0
260 353 0
261 353 0
262 353 0
267 353 0
268 353 0
269 353 0
273 353 0
277 353 0
196 352 0
197 352 0
200 352 0
247 352 0
248 352 0
249 352 0
256 352 0
257 352 0
261 352 0
262 352 0
269 352 0
270 352 0
271 352 0
272 352 0
273 352 0
274 352 0
275 352 0
277 352 0
278 352 0
185 351 0
186 351 0
200 351 0
247 351 0
248 351 0
249 351 0
255 351 0
256 351 0
257 351 0
258 351 0
259 351 0
273 351 0
274 351 0
275 351 0
278 351 0
183 350 0
184 350 0
185 350 0
186 350 0
199 350 0
200 350 0
248 350 0
249 350 0
255 350 0
256 350 0
259 350 0
260 350 0
264 350 0
265 350 0
266 350 0
278 350 0
279 350 0
181 349 0
182 349 0
183 349 0
186 349 0
187 349 0
199 349 0
255 349 0
256 349 0
257 349 0
258 349 0
259 349 0
260 349 0
264 349 0
265 349 0
266 349 0
279 349 0
280 349 0
281 349 0
282 349 0
180 348 0
181 348 0
182 348 0
183 348 0
187 348 0
191 348 0
192 348 0
193 348 0
194 348 0
195 348 0
196 348 0
197 348 0
198 348 0
199 348 0
272 348 0
273 348 0
281 348 0
282 348 0
283 348 0
176 347 0
177 347 0
180 347 0
181 347 0
182 347 0
183 347 0
184 347 0
187 347 0
188 347 0
189 347 0
190 347 0
191 347 0
272 347 0
273 347 0
283 347 0
284 347 0
285 347 0
286 347 0
287 347 0
288 347 0
289 347 0
290 347 0
175 346 0
176 346 0
177 346 0
178 346 0
184 346 0
189 346 0
190 346 0
287 346 0
288 346 0
290 346 0
172 345 0
173 345 0
174 345 0
175 345 0
178 345 0
181 345 0
182 345 0
183 345 0
184 345 0
230 345 0
231 345 0
232 345 0
233 345 0
290 345 0
293 345 0
294 345 0
295 345 0
296 345 0
171 344 0
172 344 0
173 344 0
178 344 0
180 344 0
181 344 0
182 344 0
229 344 0
230 344 0
233 344 0
234 344 0
235 344 0
290 344 0
292 344 0
293 344 0
296 344 0
170 343 0
171 343 0
178 343 0
179 343 0
180 343 0
229 343 0
230 343 0
235 343 0
236 343 0
285 343 0
286 343 0
287 343 0
290 343 0
291 343 0
292 343 0
296 343 0
297 343 0
170 342 0
202 342 0
203 342 0
204 342 0
205 342 0
211 342 0
212 342 0
213 342 0
214 342 0
219 342 0
220 342 0
221 342 0
222 342 0
223 342 0
224 342 0
225 342 0
226 342 0
227 342 0
230 342 0
236 342 0
237 342 0
238 342 0
247 342 0
248 342 0
285 342 0
286 342 0
287 342 0
297 342 0
164 341 0
165 341 0
166 341 0
167 341 0
168 341 0
169 341 0
170 341 0
172 341 0
173 341 0
202 341 0
205 341 0
206 341 0
207 341 0
208 341 0
209 341 0
210 341 0
211 341 0
213 341 0
214 341 0
215 341 0
219 341 0
227 341 0
230 341 0
237 341 0
238 341 0
239 341 0
240 341 0
247 341 0
248 341 0
297 341 0
298 341 0
299 341 0
300 341 0
301 341 0
302 341 0
303 341 0
304 341 0
164 340 0
165 340 0
166 340 0
167 340 0
168 340 0
169 340 0
172 340 0
173 340 0
193 340 0
194 340 0
195 340 0
196 340 0
197 340 0
198 340 0
199 340 0
202 340 0
207 340 0
208 340 0
209 340 0
210 340 0
215 340 0
218 340 0
219 340 0
227 340 0
228 340 0
229 340 0
230 340 0
240 340 0
241 340 0
246 340 0
247 340 0
248 340 0
304 340 0
168 339 0
169 339 0
193 339 0
199 339 0
202 339 0
203 339 0
206 339 0
207 339 0
208 339 0
210 339 0
211 339 0
214 339 0
215 339 0
217 339 0
218 339 0
223 339 0
224 339 0
225 339 0
226 339 0
227 339 0
228 339 0
232 339 0
233 339 0
234 339 0
241 339 0
246 339 0
247 339 0
248 339 0
249 339 0
250 339 0
304 339 0
305 339 0
161 338 0
162 338 0
163 338 0
164 338 0
167 338 0
168 338 0
169 338 0
186 338 0
187 338 0
188 338 0
189 338 0
193 338 0
199 338 0
202 338 0
203 338 0
205 338 0
206 338 0
211 338 0
213 338 0
214 338 0
216 338 0
217 338 0
222 338 0
223 338 0
227 338 0
228 338 0
232 338 0
233 338 0
234 338 0
241 338 0
245 338 0
246 338 0
250 338 0
251 338 0
305 338 0
161 337 0
164 337 0
165 337 0
166 337 0
167 337 0
185 337 0
186 337 0
189 337 0
193 337 0
194 337 0
198 337 0
199 337 0
202 337 0
203 337 0
205 337 0
206 337 0
211 337 0
212 337 0
213 337 0
216 337 0
221 337 0
222 337 0
227 337 0
240 337 0
241 337 0
244 337 0
245 337 0
246 337 0
251 337 0
252 337 0
253 337 0
254 337 0
305 337 0
306 337 0
161 336 0
165 336 0
166 336 0
185 336 0
189 336 0
194 336 0
197 336 0
198 336 0
201 336 0
202 336 0
206 336 0
216 336 0
221 336 0
225 336 0
226 336 0
227 336 0
239 336 0
240 336 0
244 336 0
245 336 0
254 336 0
255 336 0
265 336 0
266 336 0
267 336 0
306 336 0
161 335 0
185 335 0
186 335 0
187 335 0
188 335 0
189 335 0
194 335 0
195 335 0
197 335 0
198 335 0
199 335 0
200 335 0
201 335 0
206 335 0
215 335 0
216 335 0
220 335 0
221 335 0
223 335 0
224 335 0
225 335 0
239 335 0
244 335 0
250 335 0
251 335 0
252 335 0
253 335 0
254 335 0
255 335 0
256 335 0
265 335 0
266 335 0
267 335 0
306 335 0
161 334 0
163 334 0
164 334 0
165 334 0
166 334 0
180 334 0
181 334 0
182 334 0
183 334 0
187 334 0
188 334 0
194 334 0
195 334 0
206 334 0
207 334 0
208 334 0
214 334 0
215 334 0
220 334 0
223 334 0
239 334 0
244 334 0
245 334 0
249 334 0
250 334 0
253 334 0
254 334 0
256 334 0
257 334 0
261 334 0
262 334 0
269 334 0
270 334 0
271 334 0
306 334 0
161 333 0
163 333 0
165 333 0
166 333 0
179 333 0
180 333 0
183 333 0
188 333 0
189 333 0
190 333 0
191 333 0
192 333 0
194 333 0
195 333 0
206 333 0
207 333 0
208 333 0
209 333 0
213 333 0
214 333 0
220 333 0
223 333 0
239 333 0
240 333 0
241 333 0
245 333 0
249 333 0
254 333 0
256 333 0
257 333 0
260 333 0
261 333 0
262 333 0
263 333 0
264 333 0
265 333 0
269 333 0
271 333 0
272 333 0
306 333 0
307 333 0
161 332 0
163 332 0
165 332 0
178 332 0
179 332 0
180 332 0
181 332 0
182 332 0
183 332 0
188 332 0
189 332 0
192 332 0
193 332 0
194 332 0
206 332 0
207 332 0
208 332 0
209 332 0
210 332 0
211 332 0
212 332 0
213 332 0
214 332 0
215 332 0
216 332 0
217 332 0
219 332 0
220 332 0
222 332 0
223 332 0
239 332 0
240 332 0
241 332 0
242 332 0
245 332 0
249 332 0
253 332 0
254 332 0
257 332 0
260 332 0
265 332 0
266 332 0
269 332 0
272 332 0
273 332 0
274 332 0
307 332 0
308 332 0
309 332 0
310 332 0
154 331 0
155 331 0
156 331 0
157 331 0
158 331 0
160 331 0
161 331 0
163 331 0
164 331 0
165 331 0
174 331 0
175 331 0
176 331 0
177 331 0
178 331 0
179 331 0
181 331 0
182 331 0
183 331 0
187 331 0
188 331 0
192 331 0
193 331 0
194 331 0
206 331 0
207 331 0
208 331 0
209 331 0
210 331 0
211 331 0
214 331 0
215 331 0
216 331 0
217 331 0
219 331 0
220 331 0
222 331 0
223 331 0
231 331 0
232 331 0
242 331 0
245 331 0
249 331 0
250 331 0
252 331 0
253 331 0
257 331 0
259 331 0
260 331 0
266 331 0
267 331 0
268 331 0
269 331 0
274 331 0
275 331 0
276 331 0
277 331 0
309 331 0
310 331 0
153 330 0
154 330 0
155 330 0
156 330 0
157 330 0
158 330 0
159 330 0
160 330 0
173 330 0
174 330 0
179 330 0
181 330 0
182 330 0
183 330 0
184 330 0
185 330 0
186 330 0
187 330 0
220 330 0
221 330 0
222 330 0
223 330 0
230 330 0
231 330 0
232 330 0
233 330 0
242 330 0
243 330 0
244 330 0
245 330 0
250 330 0
251 330 0
252 330 0
257 330 0
258 330 0
259 330 0
270 330 0
271 330 0
272 330 0
273 330 0
277 330 0
282 330 0
283 330 0
284 330 0
310 330 0
311 330 0
312 330 0
313 330 0
314 330 0
315 330 0
150 329 0
151 329 0
152 329 0
153 329 0
173 329 0
174 329 0
175 329 0
176 329 0
177 329 0
179 329 0
180 329 0
181 329 0
220 329 0
221 329 0
222 329 0
223 329 0
230 329 0
231 329 0
233 329 0
250 329 0
251 329 0
257 329 0
258 329 0
270 329 0
271 329 0
273 329 0
274 329 0
277 329 0
281 329 0
282 329 0
283 329 0
284 329 0
314 329 0
315 329 0
316 329 0
317 329 0
149 328 0
150 328 0
155 328 0
156 328 0
157 328 0
158 328 0
165 328 0
166 328 0
167 328 0
168 328 0
172 328 0
173 328 0
174 328 0
175 328 0
177 328 0
198 328 0
199 328 0
220 328 0
222 328 0
231 328 0
232 328 0
233 328 0
271 328 0
272 328 0
274 328 0
275 328 0
277 328 0
280 328 0
281 328 0
284 328 0
285 328 0
317 328 0
318 328 0
319 328 0
149 327 0
155 327 0
157 327 0
158 327 0
164 327 0
165 327 0
166 327 0
167 327 0
168 327 0
171 327 0
172 327 0
173 327 0
174 327 0
175 327 0
176 327 0
177 327 0
198 327 0
199 327 0
220 327 0
221 327 0
222 327 0
272 327 0
273 327 0
274 327 0
275 327 0
277 327 0
278 327 0
279 327 0
280 327 0
285 327 0
319 327 0
320 327 0
149 326 0
155 326 0
156 326 0
157 326 0
164 326 0
165 326 0
166 326 0
170 326 0
171 326 0
198 326 0
199 326 0
220 326 0
221 326 0
235 326 0
236 326 0
237 326 0
238 326 0
239 326 0
240 326 0
241 326 0
247 326 0
248 326 0
249 326 0
277 326 0
278 326 0
279 326 0
285 326 0
320 326 0
321 326 0
146 325 0
147 325 0
148 325 0
149 325 0
169 325 0
170 325 0
171 325 0
235 325 0
237 325 0
238 325 0
239 325 0
240 325 0
241 325 0
247 325 0
248 325 0
249 325 0
253 325 0
254 325 0
274 325 0
275 325 0
[...]
CELL_DATA 13854
COLOR_SCALARS lut 1
0.141775
0.141636
0.141464
0.141272
0.138679
0.13941
0.144997
0.14322
0.141654
0.140279
0.139069
0.138
0.137043
0.132742
0.132565
0.132519
0.134279
0.134214
0.133797
0.133615
0.133393
0.132262
0.131738
0.131224
0.130749
0.131325
0.139303
0.137591
0.136083
0.13074
0.129942
0.126528
0.126314
0.126225
0.12773
0.127201
0.127006
0.126735
0.126362
0.125881
0.125324
0.124755
0.123836
0.12425
0.12741
0.129074
0.132619
0.131218
0.124786
0.124083
0.12341
0.122782
0.122221
0.121748
0.121378
0.121122
0.120985
0.121919
0.122074
0.12216
0.122177
0.119283
0.118701
0.118235
0.117915
0.118165
0.118721
0.119586
0.120753
0.122206
0.126908
0.117622
0.117217
0.116916
0.116726
0.116654
0.116693
0.116818
0.117348
0.117473
0.117542
0.117554
0.117524
0.117472
0.113517
0.113114
0.112936
0.113408
0.114086
0.116302
0.117799
0.119508
0.121373
0.123331
0.125307
0.145218
0.147802
0.150698
0.153881
0.157319
0.133431
0.131
0.128858
0.127005
0.12543
0.124108
0.123007
0.122094
0.113249
0.113622
0.113757
0.113729
0.113691
0.111319
0.112613
0.114108
0.119244
0.120947
0.122526
0.127244
0.12823
0.129266
0.137181
0.139571
0.142252
0.148404
0.151818
0.155422
0.159197
0.134318
0.131513
0.128957
0.126667
0.124657
0.110399
0.110457
0.110534
0.110603
0.10719
0.108298
0.109598
0.115624
0.117016
0.118248
0.119321
0.121154
0.122955
0.123996
0.125199
0.126609
0.134814
0.137526
0.140469
0.143619
0.146952
0.150448
0.154092
0.127115
0.124705
0.122554
0.120675
0.119078
0.103833
0.10478
0.114452
0.115283
0.116059
0.120963
0.122458
0.12419
0.133539
0.146007
0.120653
0.11863
0.114184
0.100181
0.100054
0.100177
0.106483
0.107659
0.111242
0.111928
0.119231
0.121006
0.123004
0.125215
0.127626
0.13022
0.132976
0.138903
0.142052
0.144926
0.141457
0.109884
0.0983539
0.0981807
0.098247
0.102762
0.10385
0.104904
0.10587
0.106716
0.122728
0.125041
0.127502
0.135616
0.143059
0.139634
0.136314
0.133138
0.106597
0.106084
0.0966766
0.0967288
0.100905
0.101905
0.104524
0.105191
0.107539
0.108233
0.109032
0.130173
0.132741
0.141037
0.137831
0.134637
0.125582
0.122859
0.102924
0.099602
0.100551
0.101464
0.102296
0.103022
0.103652
0.105875
0.106518
0.107248
0.12792
0.130218
0.1326
0.135084
0.135738
0.132828
0.1299
0.126988
0.116339
0.10807
0.106337
0.104751
0.103336
0.102121
0.101131
0.100382
0.0998819
0.0996302
0.112289
0.113704
0.127995
0.130117
0.132366
0.138649
0.135922
0.128044
0.125402
0.122746
0.120109
0.117533
0.110547
0.108522
0.106644
0.104902
0.103288
0.111107
0.112314
0.127952
0.130014
0.132262
0.134709
0.137341
0.140116
0.142977
0.145871
0.13332
0.13073
0.128255
0.125859
0.111674
0.102009
0.10049
0.13251
0.134972
0.140108
0.133985
0.131104
0.128436
0.125953
0.119234
0.112855
0.11071
0.108584
0.106516
0.0902066
0.0900123
0.0898894
0.0898532
0.135295
0.142244
0.144668
0.147215
0.149923
0.129427
0.126608
0.124009
0.113378
0.109587
0.107675
0.105755
0.0878665
0.0876263
0.0872814
0.0873405
0.0874844
0.131394
0.135458
0.13752
0.144281
0.125303
0.122546
0.108246
0.106557
0.104864
0.0853589
0.0851279
0.0849809
0.0851808
0.120085
0.121482
0.123055
0.128349
0.130145
0.131931
0.139617
0.141862
0.118877
0.0864973
0.0871588
0.0878245
0.0884551
0.089981
0.089707
0.0892816
0.0887323
0.08551
0.0850191
0.0846251
0.0843252
0.0841065
0.083944
0.0838025
0.083647
0.0834565
0.0827814
0.0827854
0.0830026
0.0832312
0.085676
0.0864147
0.118636
0.119888
0.121309
0.137824
0.132673
0.128442
0.124653
0.121269
0.118255
0.115567
0.11316
0.10902
0.107224
0.084693
0.0864923
0.0869898
0.0873924
0.0876763
0.0878213
0.0878143
0.0876518
0.0868779
0.0863033
0.0856506
0.0830693
0.0812601
0.0806422
0.0807444
0.0809474
0.0811531
0.0813556
0.0837608
0.0845777
0.134689
0.136467
0.138445
0.140667
0.143186
0.146065
0.149369
0.153159
0.125754
0.121839
0.118365
0.115295
0.11259
0.110204
0.104481
0.102923
0.0817876
0.0814246
0.0811899
0.0810944
0.0811428
0.0813324
0.0816509
0.0831451
0.0855657
0.085788
0.0858741
0.085813
0.0834802
0.0814491
0.0808909
0.079309
0.0791391
0.0789449
0.0787493
0.0792036
0.0793999
0.0811087
0.0817941
0.082655
0.14809
0.107518
0.105422
0.0803906
0.080452
0.0819022
0.082442
0.0837879
0.0840692
0.084234
0.0841503
0.083891
0.0823323
0.0816352
0.0802134
0.0795697
0.0778924
0.0778284
0.077788
0.0777313
0.0776326
0.077489
0.0768124
0.0767189
0.0766823
0.0774114
0.079137
0.0798357
0.0807075
0.0817556
0.0829719
0.143788
0.147173
0.126427
0.12167
0.117428
0.11368
0.105077
0.10296
0.101138
0.0831414
0.0823923
0.0817173
0.0811117
0.0793373
0.0795931
0.0810108
0.0815195
0.0824019
0.082729
0.0825692
0.0815524
0.0808838
0.0794062
0.0786844
0.0764975
0.0763913
0.0762431
0.0761233
0.0754487
0.0753281
0.0752538
0.0756189
0.0767257
0.0772539
0.081006
0.082337
0.143082
0.120163
0.108408
0.105431
0.10287
0.10069
0.0824683
0.0817666
0.0800847
0.078652
0.078462
0.0787633
0.0791095
0.0805121
0.0809979
0.0818105
0.0820946
0.0816748
0.0811745
0.0805529
0.0782751
0.0754833
0.0752865
0.0751336
0.0739469
0.0740322
0.0746327
0.0749989
0.0754938
0.0803362
0.0817123
0.0831471
0.0846027
0.13961
0.142566
0.11434
0.100883
0.0986044
0.0812859
0.0794225
0.0782274
0.0784022
0.0786685
0.0799459
0.0804375
0.0819159
0.0775305
0.0745812
0.074302
0.0743148
0.0742828
0.0726297
0.0726151
0.0731123
0.0734332
0.0824171
0.0838044
0.0964762
0.0975723
0.0986261
0.139162
0.108922
0.0804294
0.0800204
0.079676
0.0793852
0.0791383
0.0784012
0.0784102
0.0786996
0.0789905
0.0793714
0.0798214
0.0803099
0.0822071
0.0780827
0.0771692
0.0743428
0.0739809
0.0736606
0.0736458
0.073671
0.0715413
0.0717681
0.0754018
0.0765056
0.0777087
0.0789745
0.0802712
0.0815791
0.0828876
0.0939125
0.0949991
0.096047
0.136273
0.10389
0.0975171
0.0949838
0.0928497
0.0910834
0.0818934
0.0814381
0.0809955
0.0805814
0.0794874
0.0793494
0.0789926
0.079054
0.0829701
0.0830358
0.0829541
0.079188
0.0781858
0.0740698
0.0732831
0.0706126
0.0705978
0.0708069
0.0728815
0.0737545
0.0770211
0.0782228
0.0806732
0.081907
0.0867345
0.0879131
0.0953237
0.096258
0.0971611
0.133856
0.0992422
0.0934713
0.0893178
0.0877785
0.0810559
0.0807714
0.0800236
0.0796965
0.0797424
0.0797953
0.0798436
0.0798852
0.079998
0.0801115
0.0841922
0.0842254
0.0840964
0.0837869
0.0808407
0.0797806
0.0740745
0.073131
0.0698256
0.0696672
0.0695624
0.0697525
0.0714954
0.0763192
0.0785978
0.0797584
0.083222
0.0843591
0.0854876
0.0865969
0.0876755
0.0887181
0.0925734
0.0943661
0.0952199
0.131869
0.133542
0.0949879
0.089783
0.0861041
0.0801178
0.0800025
0.0799097
0.0798381
0.0797909
0.0797771
0.0804185
0.0806245
0.0811376
0.0812671
0.0814004
0.0858447
0.0858492
0.0856734
0.0852983
0.0847209
0.0839529
0.0830147
0.0819327
0.0807435
0.0794964
0.0782502
0.0770648
0.0750717
0.0743324
0.0734076
0.0731794
0.0691743
0.0689875
0.068854
0.0687755
0.0688767
0.0702877
0.0735879
0.0745949
0.0777908
0.0810685
0.0862593
0.0872011
0.0898773
0.0924194
0.0932145
0.0939691
0.131576
0.133335
0.135559
0.138254
0.11952
0.114405
0.10962
0.105176
0.101091
0.0940621
0.091138
0.0864595
0.0846695
0.0832143
0.079144
0.0790921
0.0790709
0.0790783
0.0791198
0.0791984
0.0794552
0.0796283
0.0798359
0.0811123
0.0814968
0.0827614
0.0829744
0.0831707
0.0878829
0.0878624
0.0876407
0.0871976
0.0865306
0.085654
0.0820376
0.0806412
0.0792461
0.0779167
0.0756643
0.0748142
0.0737066
0.0734034
0.071523
0.0710933
0.0682014
0.0681823
0.0692678
0.0698328
0.0712992
0.0721565
0.0760285
0.0780921
0.0791171
0.0848367
0.0856747
0.0864946
0.0873051
0.0911981
0.0918991
0.092589
0.0933082
0.133245
0.135524
0.118827
0.113757
0.109011
0.104588
0.100497
0.0967511
0.0933644
0.0903458
0.0776999
0.0777374
0.0786486
0.0793473
0.0797506
0.0801888
0.080668
0.0811916
0.0817521
0.0823312
0.0754798
0.074721
0.0741617
0.0737704
0.0718537
0.0713897
0.0709073
0.0704309
0.0677867
0.0677092
0.0676658
0.0676638
0.0688988
0.069481
0.0701616
0.0744725
0.0754386
0.0764082
0.0856408
0.0863862
0.0871258
0.0878484
0.0905873
0.0961252
0.0978211
0.0997411
0.133279
0.135602
0.138337
0.141472
0.14499
0.14888
0.129556
0.123719
0.1183
0.113252
0.076407
0.0765684
0.0767937
0.0770828
0.0774368
0.0783515
0.0789032
0.079503
0.0762761
0.0753954
0.0747272
0.0742381
0.0718442
0.0713273
0.0702717
0.0681349
0.0686174
0.0731
0.0740008
0.0833438
0.0840294
0.0853914
0.0860464
0.0879869
0.0919795
0.0934574
0.0951614
0.0970977
0.141576
0.145007
0.148804
0.152998
0.129423
0.123482
0.0998034
0.09605
0.0926046
0.0894752
0.0765269
0.0758291
0.0753576
0.0750795
0.0751567
0.0753647
0.0756464
0.0760075
0.0769794
0.09173
0.0922485
0.0771427
0.0753502
0.071314
0.0707355
0.0701717
0.0818454
0.0824802
0.0837191
0.0843127
0.0855359
0.0881499
0.0893842
0.0944352
0.0965891
0.148771
0.152948
0.157629
0.12357
0.095966
0.0893625
0.0865088
0.0757586
0.0749486
0.0743737
0.0740106
0.0738297
0.0740308
0.0742644
0.0745743
0.07497
0.0754611
0.0760534
0.0767498
0.0946121
0.0951359
0.0780179
0.0768785
0.075977
0.0804113
0.0809964
0.0815653
0.0821165
0.0832483
0.083919
0.0847261
0.0857091
0.0939059
0.153057
0.157862
0.118268
0.0926005
0.0894353
0.0865514
0.0743559
0.073675
0.0732131
0.0730596
0.0732998
0.0976232
0.0981487
0.0788456
0.0775769
0.0690038
0.0685793
0.0682293
0.0679494
0.0677332
0.0675696
0.0674407
0.066578
0.066482
0.0664642
0.0811298
0.0817441
0.0824901
0.091249
0.15339
0.158397
0.131109
0.124729
0.118857
0.11348
0.0722603
0.0724867
0.0727993
0.0689593
0.0682127
0.0679562
0.0677654
0.067625
0.0675127
0.0664609
0.0662837
0.0661757
0.0667037
0.0670677
0.0777633
0.0782403
0.0787023
0.0791847
0.0797391
0.0804175
0.0886524
0.149415
0.154016
0.125708
0.0716454
0.0718348
0.0693947
0.0689102
0.0685156
0.068209
0.0661209
0.0659252
0.0660567
0.0663225
0.0666748
0.07564
0.0761232
0.0765709
0.0769935
0.0785237
0.0861521
0.145905
0.150124
0.120723
0.0739737
0.07301
0.0722704
0.071353
0.0752144
0.0762913
0.0775393
0.078954
0.0805192
0.108187
0.108766
0.0692932
0.0688313
0.068464
0.0654438
0.0658741
0.0742095
0.0768281
0.0837855
0.14671
0.116107
0.106018
0.101641
0.0976846
0.0731316
0.0723155
0.0717089
0.0710405
0.0712365
0.0755324
0.0795942
0.0812859
0.11088
0.111411
0.111939
0.083093
0.081053
0.0793194
0.0687006
0.0683647
0.0648566
0.0649392
0.0651135
0.0673368
0.0677688
0.0681974
0.0698978
0.0703598
0.0708558
0.0713842
0.07299
0.0734522
0.0753518
0.0815902
0.0833571
0.0853292
0.0874788
0.0897742
0.0921828
0.143771
0.117179
0.111825
0.102426
0.0946936
0.0724712
0.0717986
0.0710142
0.0759745
0.0803396
0.0821476
0.113662
0.114171
0.114665
0.115126
0.0859327
0.08348
0.0813393
0.0795088
0.0766673
0.0755812
0.0746614
0.0685045
0.0682004
0.0658735
0.0662606
0.0666578
0.0670609
0.0687628
0.0703324
0.0724599
0.072844
0.0731608
0.073443
0.0741132
0.0770259
0.0782081
0.0795989
0.0811999
0.0870984
0.0893457
0.091689
0.0941009
0.0965521
0.137993
0.141308
0.118252
0.112846
0.0991211
0.0953514
0.0919603
0.0719707
0.0714374
0.0709185
0.0711166
0.0765268
0.0778801
0.0794371
0.0811869
0.0940164
0.0963404
0.116989
0.117486
0.117931
0.0863283
0.0815548
0.0796379
0.0780061
0.0766243
0.0744599
0.0735978
0.0649477
0.0653036
0.0656776
0.0660667
0.0678116
0.0694918
0.0723599
0.0725935
0.0728271
0.0731173
0.0755667
0.0766002
0.077829
0.0792558
0.0934076
0.136208
0.139326
0.131258
0.125091
0.119287
0.113861
0.0751069
0.073934
0.0729655
0.0716143
0.0712149
0.0709792
0.0708878
0.0709224
0.0710706
0.0955712
0.0979992
0.100465
0.102944
0.105398
0.120316
0.120794
0.0866404
0.0840191
0.0817168
0.078016
0.0733086
0.0644738
0.0648352
0.0670419
0.0675997
0.0682076
0.0688527
0.0743351
0.0752179
0.0762814
0.0903632
0.137815
0.141322
0.145401
0.150087
0.155401
0.132072
0.125994
0.120243
0.075428
0.0742305
0.0724348
0.0713833
0.0996862
0.102253
0.107423
0.0780139
0.0764804
0.0740155
0.073022
0.0641227
0.0636627
0.0632742
0.0625966
0.0627232
0.0629165
0.065893
0.0664385
0.0670399
0.085469
0.0874518
0.148519
0.153589
0.159281
0.145404
0.138933
0.132709
0.126755
0.0744915
0.0720147
0.0712506
0.0772663
0.0786654
0.104036
0.10673
0.109425
0.0764211
0.0750315
0.0738213
0.0668754
0.066892
0.0668779
0.0667954
0.064333
0.063804
0.0633265
0.0629176
0.0621624
0.0620894
0.0621076
0.0623798
0.0648648
0.0653918
0.0666198
0.079661
0.0812275
0.0829101
0.157811
0.163876
0.145458
0.139195
0.0736583
0.0728164
0.0721615
0.0716815
0.0713627
0.0711903
0.075653
0.0767145
0.0779744
0.0794561
0.0811714
0.0707187
0.0699519
0.0692587
0.0666462
0.0666749
0.0666679
0.0665872
0.0646477
0.0640884
0.0630608
0.0618204
0.061951
0.0621638
0.0644458
0.0663035
0.0717678
0.0722194
0.0728042
0.0735252
0.0764762
0.0777093
0.079064
0.103768
0.105442
0.10725
0.162718
0.171726
0.164765
0.158062
0.151581
0.139252
0.133405
0.0712362
0.0711832
0.0752774
0.0762234
0.0820399
0.0704939
0.0696996
0.0689886
0.0669265
0.0666619
0.0665061
0.0644884
0.0628818
0.0615758
0.0616261
0.0618241
0.0641157
0.0660583
0.070889
0.0708485
0.0711962
0.0725247
0.0749165
0.0759453
0.0770925
0.0783596
0.0797468
0.0812475
0.0828483
0.0845297
0.0862639
0.10083
0.104607
0.162082
0.168237
0.171001
0.164049
0.151105
0.145011
0.139138
0.133477
0.0794936
0.0777264
0.076209
0.0712151
0.0711563
0.0749332
0.0757756
0.0828632
0.0937683
0.090441
0.0873965
0.0846578
0.0703457
0.0695289
0.0688031
0.0667563
0.0663741
0.0644165
0.0627968
0.0614307
0.0612932
0.0612468
0.0612864
0.0614021
0.0638568
0.0658587
0.0708608
0.0707401
0.0706367
0.0707191
0.071653
0.0727938
0.0735206
0.0753038
0.0763705
0.0775595
0.0833996
0.0850357
0.0979349
0.0998662
0.101976
0.161886
0.167787
0.163484
0.0797417
0.0778938
0.076308
0.0749661
0.0710565
0.0711098
0.0753594
0.0785272
0.079986
0.08168
0.0836149
0.0936996
0.090409
0.0846906
0.0666669
0.0664377
0.0663204
0.0644296
0.0633143
0.0628038
0.0616631
0.0619432
0.0622784
0.0636572
0.0656879
0.0707735
0.0706129
0.0704563
0.0703048
0.0708804
0.0717108
0.0745596
0.0807285
0.0822412
0.0951195
0.0971536
0.0993873
0.167689
0.173867
0.156468
0.144238
0.138619
0.133256
0.128117
0.078091
0.0738375
0.072882
0.0721273
0.0715618
0.0711765
0.0709568
0.0708832
0.0709334
0.0742915
0.0749663
0.0757518
0.0777613
0.0790484
0.0902728
0.0873193
0.0846571
0.0666438
0.0664309
0.0645159
0.0634057
0.0613803
0.0615851
0.062164
0.0625436
0.0635086
0.0641023
0.064777
0.0655362
0.0704839
0.0702837
0.0699294
0.0701848
0.0704202
0.0707349
0.0722152
0.0729163
0.0782582
0.173735
0.18014
0.149978
0.143992
0.138393
0.133106
0.128077
0.123266
0.0852045
0.0826396
0.0803508
0.0783333
0.0765807
0.0745869
0.0781911
0.0871359
0.0845385
0.0651982
0.0646625
0.0635636
0.0613976
0.0615807
0.0624737
0.063984
0.0646475
0.0653984
0.0697104
0.0695836
0.0704623
0.0708978
0.0714377
0.0748324
0.0759939
0.179824
0.186406
0.144033
0.138354
0.133064
0.128088
0.123365
0.0857574
0.0831112
0.0727795
0.0719107
0.0712493
0.0748504
0.0755858
0.077422
0.0785782
0.0722934
0.0711962
0.0670628
0.0667561
0.0653831
0.06378
0.0613822
0.0614834
0.0624563
0.0660866
0.0669607
0.0694431
0.0691279
0.0690406
0.0690015
0.0690146
0.069086
0.0694343
0.0720182
0.0729147
0.0819447
0.0835756
0.085363
0.0873483
0.0895654
0.185757
0.128246
0.123553
0.0836548
0.0718216
0.0705552
0.0702054
0.0758593
0.0767384
0.0777528
0.0789318
0.0735351
0.0723133
0.0712337
0.0671837
0.0668921
0.066756
0.0668496
0.0656117
0.0651078
0.0645802
0.0640511
0.0619573
0.061735
0.0615971
0.061541
0.0615572
0.0616348
0.0621868
0.0624862
0.0651431
0.0659325
0.0667826
0.0691744
0.0689541
0.0687693
0.0684077
0.0684394
0.0685357
0.070442
0.0781462
0.0796297
0.0850169
0.0872492
0.089744
0.185051
0.191348
0.128653
0.123913
0.0842716
0.0817179
0.0709483
0.0696817
0.0696034
0.112062
0.115096
0.0735433
0.0723536
0.0713012
0.0673608
0.0670841
0.066972
0.0670629
0.0653948
0.0648864
0.0625801
0.0622664
0.0618024
0.0617965
0.061848
0.0619494
0.0622963
0.0650038
0.0665662
0.0673983
0.067805
0.067749
0.0690475
0.074732
0.0760598
0.0875466
0.190068
0.196439
0.129408
0.124533
0.0849547
0.0823239
0.0701472
0.0696516
0.0692107
0.0796101
0.0809768
0.0825177
0.111571
0.114554
0.0735712
0.0714044
0.0675903
0.0673268
0.0629518
0.0622155
0.0621215
0.0621147
0.0621814
0.0622894
0.0624431
0.0648368
0.0670791
0.0678131
0.0683257
0.0697753
0.0706983
0.0717404
0.0728937
0.0854445
0.0882086
0.188569
0.19448
0.142282
0.136164
0.130584
0.125497
0.085695
0.082998
0.0762615
0.07452
0.0690203
0.0688076
0.0687551
0.0688491
0.0730697
0.073691
0.0743532
0.0799813
0.0828322
0.0844919
0.0863141
0.0895399
0.0871205
0.0848931
0.0748575
0.0736293
0.0715476
0.0633599
0.0625987
0.0646319
0.0652592
0.0666779
0.0673778
0.0671203
0.0676726
0.0683661
0.069195
0.0701516
0.0861714
0.192253
0.19821
0.138082
0.132209
0.126859
0.0837276
0.0748409
0.0732345
0.0683544
0.0685255
0.0725831
0.0732293
0.0746157
0.0803999
0.0847524
0.0864756
0.0886646
0.086425
0.0843569
0.0748937
0.0737226
0.0726686
0.0717297
0.0685179
0.0681587
0.0679091
0.0677636
0.0637873
0.0632063
0.0630125
0.0643874
0.0649334
0.0661959
0.0668268
0.0660372
0.066498
0.0678426
0.0687179
0.084218
0.195198
0.201227
0.128622
0.123482
0.0818678
0.0727642
0.0741921
0.0749581
0.0808742
0.0821546
0.0835386
0.0850288
0.106153
0.103151
0.0688213
0.0684666
0.0680611
0.067985
0.0642235
0.0639099
0.0636497
0.0630147
0.0630385
0.0631139
0.0632515
0.0645663
0.0650899
0.066199
0.0666961
0.064698
0.0647052
0.0648203
0.0666301
0.0674291
0.0683616
0.0823584
0.0997237
0.104001
0.197398
0.125332
0.120385
0.080101
0.0777904
0.0757007
0.0738475
0.0722423
0.073034
0.0745722
0.103991
0.101139
0.069115
0.0687614
0.0685046
0.0683367
0.0682388
0.064999
0.0646649
0.0643639
0.0632314
0.0631853
0.0632382
0.0641769
0.064601
0.0659431
0.0662847
0.0641002
0.063993
0.064019
0.0655571
0.066285
0.0671486
0.0681496
0.069296
0.0806047
0.0936972
0.0976899
0.101965
0.193258
0.198887
0.127498
0.122284
0.0710594
0.0698263
0.0703274
0.0710644
0.071824
0.0733997
0.0750423
0.0687496
0.0685665
0.068445
0.0677939
0.067602
0.0657322
0.065417
0.0651105
0.064825
0.0633366
0.0632573
0.0632282
0.0641057
0.0654468
0.065634
0.0655047
0.0653589
0.0652122
0.0650713
0.0634861
0.0633635
0.0632996
0.0633221
0.0652875
0.0660852
0.0681014
0.0693461
0.0765046
0.0789652
0.0917356
0.0956756
0.0999178
0.193945
0.135878
0.129928
0.124459
0.0688464
0.0679696
0.0673186
0.0668771
0.0705406
0.0721695
0.0738611
0.0747218
0.075594
0.090993
0.09251
0.0941391
0.0677812
0.0676098
0.0661098
0.0658368
0.0655602
0.0652907
0.0633992
0.0636211
0.0638871
0.0641638
0.0644193
0.0646254
0.0647608
0.0645817
0.0644525
0.064329
0.064216
0.0627371
0.0628304
0.0630386
0.0633717
0.0638362
0.064435
0.0682284
0.0695904
0.0729861
0.0750713
0.188754
0.194042
0.132547
0.12685
0.0824284
0.0798857
0.0663115
0.0661655
0.070856
0.0726167
0.0904649
0.0931692
0.0779987
0.0768983
0.0758592
0.0666965
0.0664887
0.0662595
0.0660127
0.0630263
0.0631553
0.0639329
0.0639541
0.0639111
0.0635913
0.0634892
0.0634025
0.0632585
0.0631845
0.063102
0.0630136
0.0622638
0.062324
0.0685252
0.0700212
0.0717532
0.188167
0.141638
0.135273
0.129381
0.0833286
0.0807172
0.0782802
0.0760335
0.0739908
0.0721645
0.0705645
0.0657956
0.0659239
0.0662113
0.0666416
0.0671992
0.0694642
0.0703516
0.0712733
0.0731594
0.089869
0.0909384
0.0921217
0.109579
0.106796
0.103971
0.10119
0.0985214
0.0775894
0.0765559
0.0755745
0.0679002
0.0677779
0.0676588
0.0675488
0.0674564
0.067019
0.0668669
0.0656952
0.0654364
0.06312
0.0631655
0.0631015
0.0630077
0.0626129
0.0625755
0.0624508
0.0618925
0.177891
0.182203
0.138025
0.0816201
0.0710245
0.0695447
0.068295
0.0657456
0.0661273
0.0672999
0.0698245
0.0727854
0.0737836
0.107404
0.1047
0.101954
0.0992538
0.0966688
0.0770845
0.0761106
0.0678589
0.0677439
0.0675536
0.0674848
0.0674433
0.0660886
0.0657904
0.0624053
0.0624497
0.0622766
0.0619803
0.0619662
0.0619683
0.0616114
0.172402
0.176257
0.140739
0.134544
0.0800092
0.0674983
0.0665936
0.0659192
0.0654688
0.0652299
0.0651893
0.0667411
0.067481
0.0702633
0.0713052
0.0723666
0.0734278
0.0744718
0.0898643
0.0907272
0.0917256
0.104932
0.107032
0.100054
0.0974285
0.0676295
0.067536
0.0674635
0.0674128
0.0673898
0.0674014
0.0618226
0.0616318
0.0614416
0.0614654
0.0616158
0.0614186
0.0613938
0.0825237
0.0858995
0.0896155
0.170441
0.174553
0.143371
0.13705
0.0784985
0.0762023
0.0678248
0.0668027
0.0660056
0.0654339
0.0649889
0.0652249