# vtk DataFile Version 1.0
Unstructured Grid Example
ASCII

DATASET UNSTRUCTURED_GRID
POINTS 1838 float
159 149 0
227 216 0
154 297 0
271 277 0
278 262 0
328 211 0
305 175 0
171 166 0
192 142 0
207 244 0
188 168 0
180 190 0
156 265 0
156 318 0
216 273 0
211 264 0
172 258 0
308 269 0
257 278 0
343 400 0
333 306 0
315 284 0
305 193 0
260 250 0
233 220 0
224 46 0
262 14 0
272 188 0
139 30 0
138 152 0
163 171 0
153 138 0
151 11 0
185 1 0
223 1 0
174 151 0
166 148 0
166 184 0
212 190 0
218 193 0
223 211 0
221 216 0
218 203 0
211 203 0
188 202 0
167 194 0
121 188 0
114 197 0
115 209 0
106 226 0
193 229 0
172 254 0
119 247 0
106 247 0
151 284 0
144 285 0
146 290 0
198 336 0
189 281 0
161 264 0
210 287 0
214 296 0
223 318 0
222 286 0
222 278 0
233 258 0
205 262 0
204 243 0
209 223 0
210 220 0
223 225 0
249 236 0
256 259 0
251 263 0
239 288 0
238 308 0
247 314 0
242 331 0
249 400 0
266 354 0
268 316 0
270 303 0
288 347 0
305 310 0
298 307 0
294 294 0
294 258 0
278 269 0
275 260 0
303 231 0
324 249 0
326 246 0
333 210 0
358 204 0
294 204 0
302 212 0
306 220 0
273 223 0
255 229 0
252 228 0
272 212 0
280 203 0
285 201 0
274 170 0
265 188 0
249 49 0
259 163 0
280 158 0
296 1 0
290 181 0
282 199 0
400 131 0
379 88 0
317 1 0
106 55 0
131 39 0
104 63 0
86 63 0
0 92 0
120 154 0
117 170 0
125 156 0
127 152 0
130 144 0
154 154 0
155 164 0
161 178 0
172 171 0
167 162 0
163 146 0
146 153 0
143 154 0
146 144 0
153 145 0
158 13 0
175 145 0
175 158 0
185 159 0
179 147 0
186 15 0
192 148 0
201 153 0
203 1 0
197 154 0
193 160 0
192 157 0
200 165 0
211 165 0
217 178 0
212 186 0
198 179 0
194 187 0
188 178 0
190 167 0
177 174 0
176 178 0
176 181 0
195 191 0
191 197 0
202 199 0
199 198 0
200 190 0
215 190 0
221 187 0
231 201 0
225 193 0
223 202 0
218 206 0
226 203 0
228 225 0
219 223 0
215 221 0
202 225 0
215 217 0
200 214 0
191 203 0
196 213 0
197 215 0
186 212 0
175 215 0
169 201 0
183 207 0
183 201 0
186 198 0
176 193 0
187 188 0
170 189 0
172 194 0
167 197 0
124 207 0
148 193 0
99 198 0
113 202 0
111 206 0
97 208 0
119 208 0
167 215 0
150 217 0
119 222 0
113 221 0
112 239 0
117 255 0
121 260 0
126 257 0
124 252 0
161 235 0
185 233 0
181 240 0
144 258 0
141 260 0
135 272 0
161 267 0
162 273 0
145 279 0
141 273 0
133 275 0
131 273 0
124 267 0
105 260 0
119 266 0
120 277 0
139 294 0
146 296 0
158 297 0
149 297 0
144 308 0
136 314 0
102 400 0
133 400 0
144 320 0
161 319 0
149 312 0
173 329 0
175 346 0
187 330 0
179 323 0
185 320 0
179 300 0
165 306 0
164 319 0
161 299 0
168 287 0
181 288 0
188 275 0
198 273 0
192 275 0
191 290 0
188 278 0
189 338 0
193 348 0
206 357 0
200 353 0
194 331 0
222 299 0
219 319 0
228 338 0
223 329 0
226 318 0
224 288 0
211 278 0
209 282 0
213 269 0
225 273 0
230 266 0
231 263 0
221 260 0
214 256 0
214 258 0
210 260 0
204 264 0
197 264 0
194 264 0
191 261 0
197 261 0
199 257 0
207 248 0
201 249 0
187 242 0
202 230 0
206 231 0
218 240 0
215 241 0
211 248 0
222 253 0
227 251 0
230 251 0
231 243 0
231 254 0
235 261 0
234 243 0
240 238 0
241 243 0
243 239 0
253 260 0
244 268 0
240 248 0
255 269 0
266 272 0
268 275 0
262 278 0
251 282 0
245 282 0
248 279 0
248 275 0
244 274 0
245 277 0
235 279 0
234 291 0
239 284 0
251 318 0
245 298 0
233 294 0
234 323 0
231 328 0
232 345 0
251 357 0
253 337 0
249 326 0
256 335 0
265 336 0
269 334 0
266 331 0
267 322 0
267 319 0
265 314 0
258 309 0
257 289 0
263 287 0
268 290 0
280 292 0
282 301 0
291 312 0
285 310 0
278 313 0
271 329 0
275 331 0
294 345 0
284 316 0
289 316 0
300 305 0
299 341 0
321 322 0
400 318 0
328 315 0
307 300 0
304 301 0
301 296 0
306 290 0
313 290 0
319 291 0
318 269 0
316 264 0
313 278 0
316 281 0
311 283 0
303 287 0
292 283 0
287 284 0
273 264 0
275 270 0
299 280 0
314 257 0
300 259 0
284 251 0
303 256 0
305 246 0
318 243 0
316 248 0
317 261 0
330 246 0
325 240 0
328 238 0
330 234 0
321 233 0
323 207 0
331 216 0
334 218 0
339 205 0
334 200 0
320 197 0
327 201 0
321 204 0
315 202 0
317 201 0
287 198 0
309 200 0
292 206 0
291 212 0
302 215 0
305 211 0
316 233 0
307 227 0
306 232 0
285 225 0
284 221 0
271 217 0
271 221 0
277 223 0
270 234 0
264 222 0
246 238 0
241 216 0
254 219 0
262 216 0
259 211 0
246 210 0
242 200 0
246 207 0
265 206 0
280 198 0
268 201 0
278 215 0
286 214 0
283 209 0
281 201 0
276 191 0
274 190 0
260 184 0
264 191 0
258 191 0
249 190 0
237 192 0
231 197 0
247 188 0
247 183 0
254 187 0
259 180 0
246 176 0
241 174 0
244 168 0
257 165 0
262 150 0
262 161 0
261 179 0
268 180 0
278 171 0
266 167 0
280 1 0
300 23 0
302 167 0
300 187 0
279 188 0
287 193 0
282 196 0
284 197 0
293 197 0
312 191 0
295 190 0
328 194 0
316 196 0
336 197 0
340 196 0
333 195 0
328 191 0
317 181 0
316 191 0
312 175 0
373 1 0
400 42 0
0 5 0
0 40 0
7 1 0
20 1 0
34 1 0
98 1 0
125 1 0
131 32 0
97 40 0
69 1 0
124 54 0
131 47 0
117 58 0
111 67 0
109 59 0
99 62 0
102 57 0
98 50 0
92 48 0
96 55 0
96 59 0
94 69 0
102 79 0
115 115 0
114 130 0
109 94 0
0 157 0
111 162 0
111 171 0
112 156 0
114 150 0
114 140 0
119 163 0
119 175 0
122 171 0
120 167 0
126 163 0
130 159 0
125 148 0
120 158 0
125 143 0
132 148 0
134 141 0
140 155 0
145 156 0
147 158 0
144 159 0
139 158 0
140 161 0
142 165 0
144 171 0
148 166 0
146 162 0
153 161 0
152 164 0
159 167 0
160 164 0
158 162 0
157 159 0
150 157 0
149 160 0
151 153 0
155 157 0
161 154 0
161 151 0
159 109 0
157 145 0
156 150 0
158 153 0
152 150 0
149 151 0
144 149 0
137 147 0
139 132 0
147 148 0
137 49 0
137 43 0
136 36 0
137 24 0
139 18 0
144 1 0
144 14 0
144 46 0
161 82 0
149 1 0
154 1 0
166 13 0
167 1 0
167 121 0
166 136 0
165 142 0
163 149 0
165 160 0
169 159 0
166 151 0
169 148 0
170 151 0
172 159 0
179 161 0
176 155 0
177 150 0
180 133 0
174 139 0
174 148 0
175 14 0
175 1 0
180 67 0
184 148 0
181 150 0
192 152 0
185 138 0
196 1 0
196 14 0
201 57 0
209 6 0
215 150 0
208 149 0
200 147 0
210 158 0
210 154 0
206 160 0
203 158 0
199 161 0
188 159 0
199 158 0
189 156 0
186 155 0
182 156 0
180 158 0
185 164 0
185 167 0
191 170 0
192 168 0
188 163 0
196 162 0
202 162 0
203 167 0
199 168 0
197 166 0
201 170 0
212 171 0
206 172 0
198 173 0
195 173 0
194 175 0
190 174 0
188 173 0
184 170 0
186 172 0
184 173 0
183 175 0
175 172 0
174 169 0
177 171 0
181 170 0
181 167 0
182 164 0
182 161 0
173 162 0
176 168 0
178 169 0
172 168 0
172 164 0
162 162 0
167 165 0
163 165 0
163 168 0
166 170 0
167 173 0
173 175 0
170 174 0
162 175 0
189 176 0
190 181 0
191 183 0
189 186 0
188 182 0
187 192 0
187 196 0
192 199 0
189 195 0
191 187 0
193 195 0
196 198 0
199 195 0
196 194 0
198 193 0
201 188 0
200 185 0
193 192 0
192 180 0
193 184 0
196 181 0
205 182 0
203 190 0
206 186 0
207 180 0
206 177 0
210 180 0
211 183 0
214 181 0
216 186 0
209 185 0
208 188 0
213 195 0
221 191 0
219 199 0
216 199 0
215 197 0
210 197 0
212 193 0
209 191 0
206 190 0
201 192 0
204 193 0
206 203 0
205 206 0
207 207 0
213 201 0
209 199 0
215 202 0
221 201 0
220 205 0
215 206 0
213 204 0
216 211 0
221 212 0
218 216 0
217 214 0
214 214 0
208 217 0
210 216 0
212 208 0
205 210 0
206 212 0
205 218 0
203 217 0
201 216 0
198 210 0
203 213 0
204 215 0
201 209 0
203 207 0
203 203 0
201 201 0
201 204 0
198 206 0
196 205 0
195 200 0
190 201 0
188 205 0
189 207 0
191 210 0
193 212 0
195 209 0
194 218 0
191 217 0
190 213 0
183 211 0
185 204 0
182 199 0
179 200 0
179 213 0
178 216 0
176 211 0
171 199 0
173 203 0
176 203 0
178 194 0
176 198 0
170 192 0
175 191 0
179 192 0
181 194 0
179 196 0
181 197 0
184 196 0
186 194 0
182 191 0
184 190 0
183 188 0
183 184 0
185 183 0
186 186 0
184 181 0
186 180 0
186 177 0
178 180 0
182 182 0
179 182 0
177 183 0
178 177 0
171 178 0
170 181 0
174 182 0
172 184 0
175 184 0
176 186 0
176 189 0
173 187 0
173 190 0
166 191 0
162 192 0
162 189 0
166 188 0
169 186 0
166 180 0
168 178 0
165 176 0
161 181 0
162 184 0
154 184 0
158 183 0
148 179 0
115 180 0
108 180 0
104 185 0
115 186 0
152 188 0
159 193 0
113 190 0
103 192 0
136 201 0
141 207 0
144 203 0
151 203 0
147 200 0
157 196 0
163 196 0
170 196 0
162 205 0
160 199 0
159 203 0
125 214 0
154 215 0
162 218 0
129 217 0
121 215 0
112 216 0
116 214 0
113 213 0
108 211 0
108 215 0
95 215 0
106 220 0
110 220 0
110 223 0
109 228 0
95 224 0
97 232 0
0 240 0
101 248 0
97 240 0
107 231 0
114 242 0
116 245 0
118 239 0
119 236 0
116 235 0
118 226 0
112 229 0
110 233 0
113 224 0
116 219 0
119 218 0
126 220 0
125 231 0
144 230 0
149 226 0
140 224 0
152 223 0
159 220 0
170 218 0
170 230 0
166 226 0
161 231 0
159 245 0
163 244 0
165 249 0
154 247 0
147 250 0
143 248 0
137 247 0
133 231 0
122 234 0
132 235 0
130 239 0
136 253 0
136 259 0
157 262 0
151 260 0
148 254 0
168 254 0
170 251 0
170 261 0
167 257 0
160 261 0
153 263 0
170 265 0
168 270 0
157 268 0
153 270 0
152 273 0
142 264 0
149 264 0
139 264 0
135 264 0
137 268 0
133 269 0
127 272 0
127 269 0
127 265 0
129 267 0
132 262 0
133 258 0
135 256 0
124 255 0
128 255 0
130 257 0
120 255 0
115 251 0
106 253 0
114 258 0
110 258 0
111 264 0
119 262 0
119 270 0
124 270 0
124 273 0
107 270 0
124 276 0
110 277 0
136 280 0
133 278 0
130 277 0
137 274 0
144 276 0
147 276 0
141 277 0
137 277 0
141 286 0
146 282 0
143 288 0
138 289 0
137 286 0
133 288 0
135 283 0
130 280 0
122 280 0
126 281 0
114 284 0
118 289 0
123 297 0
131 310 0
127 302 0
0 325 0
0 377 0
0 392 0
0 398 0
10 400 0
55 400 0
30 400 0
143 303 0
141 306 0
147 325 0
146 305 0
146 301 0
143 299 0
140 299 0
137 297 0
133 293 0
143 296 0
145 293 0
151 308 0
157 312 0
160 313 0
159 317 0
154 312 0
149 320 0
154 331 0
161 332 0
157 326 0
162 323 0
164 338 0
166 400 0
169 341 0
166 333 0
168 327 0
171 325 0
168 323 0
165 326 0
167 320 0
168 311 0
171 309 0
172 306 0
169 295 0
161 296 0
159 301 0
165 302 0
155 307 0
151 299 0
149 301 0
149 291 0
152 295 0
154 289 0
152 287 0
148 284 0
148 279 0
150 281 0
154 277 0
155 274 0
157 276 0
155 285 0
159 284 0
159 280 0
160 277 0
182 268 0
176 279 0
183 274 0
187 272 0
191 272 0
192 269 0
196 270 0
196 277 0
194 273 0
193 279 0
197 280 0
200 280 0
198 283 0
194 282 0
192 297 0
187 289 0
185 286 0
190 284 0
178 290 0
182 294 0
175 304 0
173 312 0
176 315 0
177 327 0
175 322 0
172 316 0
176 331 0
[...]
CELL_DATA 3610
COLOR_SCALARS ColorSpace 1
0.332026
0.290196
0.30719
0.34902
0.305882
0.287582
0.298039
0.29281
0.304575
0.315033
0.347712
0.282353
0.298039
0.392157
0.328105
0.267974
0.278431
0.366013
0.311111
0.269281
0.324183
0.335948
0.287582
0.315033
0.311111
0.31634
0.312418
0.305882
0.332026
0.321569
0.334641
0.328105
0.311111
0.301961
0.30719
0.28366
0.303268
0.322876
0.28366
0.326797
0.309804
0.322876
0.32549
0.341176
0.286275
0.337255
0.31634
0.333333
0.393464
0.379085
0.324183
0.300654
0.0666667
0.460131
0.304575
0.360784
0.298039
0.355556
0.318954
0.198693
0.147712
0.288889
0.277124
0.547712
0.335948
0.31634
0.28366
0.345098
0.31634
0.288889
0.311111
0.328105
0.364706
0.329412
0.360784
0.311111
0.320261
0.315033
0.312418
0.341176
0.315033
0.339869
0.322876
0.369935
0.328105
0.296732
0.362092
0.0718954
0.373856
0.278431
0.309804
0.213072
0.32549
0.288889
0.338562
0.305882
0.299346
0.299346
0.301961
0.339869
0.312418
0.379085
0.313725
0.303268
0.320261
0.294118
0.299346
0.31634
0.326797
0.308497
0.304575
0.326797
0.300654
0.28366
0.296732
0.31634
0.304575
0.31634
0.290196
0.311111
0.322876
0.32549
0.298039
0.29281
0.312418
0.301961
0.291503
0.298039
0.328105
0.29281
0.347712
0.28366
0.32549
0.30719
0.335948
0.318954
0.300654
0.315033
0.334641
0.273203
0.301961
0.356863
0.317647
0.321569
0.335948
0.332026
0.332026
0.383007
0.315033
0.339869
0.288889
0.333333
0.227451
0.352941
0.279739
0.30719
0.308497
0.360784
0.14902
0.288889
0.30719
0.31634
0.301961
0.275817
0.305882
0.318954
0.298039
0.301961
0.320261
0.281046
0.30719
0.322876
0.324183
0.311111
0.342484
0.315033
0.315033
0.277124
0.320261
0.267974
0.328105
0.278431
0.301961
0.368627
0.312418
0.30719
0.317647
0.360784
0.309804
0.312418
0.322876
0.309804
0.317647
0.298039
0.303268
0.288889
0.34902
0.312418
0.308497
0.294118
0.341176
0.334641
0.345098
0.386928
0.196078
0.270588
0.322876
0.320261
0.16732
0.32549
0.329412
0.330719
0.330719
0.337255
0.294118
0.252288
0.333333
0.352941
0.126797
0.350327
0.332026
0.342484
0.29281
0.294118
0.296732
0.287582
0.227451
0.350327
0.337255
0.335948
0.309804
0.351634
0.315033
0.296732
0.341176
0.333333
0.299346
0.299346
0.305882
0.298039
0.290196
0.275817
0.305882
0.317647
0.295425
0.328105
0.330719
0.320261
0.330719
0.330719
0.308497
0.31634
0.312418
0.329412
0.330719
0.326797
0.364706
0.179085
0.312418
0.317647
0.334641
0.29281
0.321569
0.356863
0.402614
0.334641
0.32549
0.24183
0.415686
0.362092
0.305882
0.484967
0.304575
0.279739
0.294118
0.312418
0.313725
0.318954
0.294118
0.294118
0.346405
0.318954
0.334641
0.321569
0.279739
0.298039
0.324183
0.317647
0.322876
0.301961
0.32549
0.318954
0.313725
0.338562
0.290196
0.333333
0.294118
0.332026
0.305882
0.303268
0.286275
0.282353
0.313725
0.298039
0.294118
0.294118
0.328105
0.304575
0.332026
0.287582
0.347712
0.324183
0.278431
0.324183
0.28366
0.330719
0.326797
0.315033
0.360784
0.303268
0.303268
0.317647
0.335948
0.328105
0.326797
0.321569
0.31634
0.346405
0.304575
0.309804
0.308497
0.330719
0.335948
0.305882
0.334641
0.330719
0.324183
0.294118
0.271895
0.294118
0.271895
0.303268
0.269281
0.300654
0.281046
0.290196
0.28366
0.30719
0.301961
0.296732
0.324183
0.271895
0.317647
0.338562
0.291503
0.309804
0.269281
0.356863
0.317647
0.32549
0.286275
0.305882
0.277124
0.321569
0.320261
0.299346
0.339869
0.30719
0.298039
0.179085
0.333333
0.308497
0.308497
0.318954
0.335948
0.210458
0.296732
0.282353
0.329412
0.318954
0.277124
0.312418
0.281046
0.266667
0.318954
0.322876
0.312418
0.312418
0.350327
0.32549
0.35817
0.311111
0.328105
0.313725
0.295425
0.288889
0.321569
0.296732
0.288889
0.265359
0.299346
0.32549
0.328105
0.295425
0.304575
0.28366
0.329412
0.287582
0.341176
0.278431
0.304575
0.304575
0.265359
0.317647
0.267974
0.305882
0.337255
0.343791
0.329412
0.321569
0.360784
0.324183
0.337255
0.291503
0.337255
0.312418
0.343791
0.334641
0.320261
0.321569
0.313725
0.29281
0.309804
0.321569
0.291503
0.300654
0.34902
0.295425
0.230065
0.311111
0.227451
0.304575
0.291503
0.222222
0.296732
0.305882
0.334641
0.318954
0.337255
0.312418
0.333333
0.324183
0.300654
0.317647
0.290196
0.28366
0.334641
0.30719
0.301961
0.275817
0.273203
0.286275
0.308497
0.312418
0.326797
0.269281
0.296732
0.299346
0.324183
0.295425
0.296732
0.286275
0.286275
0.312418
0.30719
0.281046
0.356863
0.265359
0.305882
0.304575
0.301961
0.315033
0.356863
0.34902
0.20915
0.300654
0.20915
0.308497
0.223529
0.288889
0.332026
0.324183
0.317647
0.290196
0.31634
0.298039
0.321569
0.318954
0.311111
0.303268
0.299346
0.32549
0.332026
0.290196
0.281046
0.294118
0.332026
0.295425
0.296732
0.355556
0.309804
0.318954
0.298039
0.318954
0.338562
0.321569
0.296732
0.291503
0.313725
0.296732
0.322876
0.305882
0.312418
0.299346
0.31634
0.35817
0.312418
0.269281
0.305882
0.304575
0.28366
0.320261
0.301961
0.279739
0.309804
0.309804
0.298039
0.324183
0.329412
0.261438
0.308497
0.32549
0.290196
0.309804
0.317647
0.308497
0.329412
0.29281
0.326797
0.329412
0.296732
0.317647
0.29281
0.308497
0.345098
0.298039
0.315033
0.342484
0.311111
0.305882
0.304575
0.284967
0.301961
0.290196
0.29281
0.278431
0.301961
0.312418
0.320261
0.321569
0.313725
0.294118
0.294118
0.295425
0.290196
0.29281
0.300654
0.296732
0.343791
0.326797
0.313725
0.300654
0.281046
0.324183
0.320261
0.287582
0.335948
0.318954
0.286275
0.317647
0.345098
0.329412
0.332026
0.30719
0.299346
0.288889
0.308497
0.278431
0.29281
0.324183
0.278431
0.31634
0.313725
0.315033
0.300654
0.291503
0.32549
0.298039
0.304575
0.308497
0.317647
0.304575
0.300654
0.332026
0.334641
0.235294
0.318954
0.291503
0.304575
0.311111
0.330719
0.317647
0.320261
0.318954
0.322876
0.28366
0.330719
0.345098
0.326797
0.322876
0.269281
0.284967
0.262745
0.291503
0.31634
0.330719
0.304575
0.311111
0.27451
0.317647
0.28366
0.339869
0.303268
0.29281
0.311111
0.30719
0.324183
0.298039
0.312418
0.345098
0.35817
0.313725
0.317647
0.315033
0.318954
0.334641
0.334641
0.143791
0.294118
0.334641
0.311111
0.300654
0.352941
0.328105
0.332026
0.301961
0.311111
0.329412
0.244444
0.249673
0.176471
0.335948
0.282353
0.288889
0.296732
0.333333
0.315033
0.288889
0.315033
0.333333
0.301961
0.355556
0.284967
0.299346
0.352941
0.31634
0.29281
0.294118
0.324183
0.345098
0.309804
0.309804
0.335948
0.298039
0.294118
0.298039
0.265359
0.300654
0.27451
0.299346
0.318954
0.342484
0.31634
0.305882
0.294118
0.309804
0.308497
0.315033
0.312418
0.335948
0.311111
0.320261
0.305882
0.303268
0.322876
0.290196
0.317647
0.278431
0.315033
0.343791
0.320261
0.337255
0.236601
0.294118
0.298039
0.299346
0.301961
0.290196
0.301961
0.295425
0.299346
0.30719
0.309804
0.350327
0.308497
0.299346
0.29281
0.291503
0.31634
0.320261
0.305882
0.303268
0.305882
0.300654
0.303268
0.329412
0.303268
0.366013
0.347712
0.300654
0.330719
0.318954
0.341176
0.315033
0.290196
0.300654
0.29281
0.322876
0.299346
0.290196
0.28366
0.287582
0.313725
0.299346
0.31634
0.29281
0.301961
0.324183
0.317647
0.296732
0.313725
0.305882
0.312418
0.303268
0.288889
0.269281
0.315033
0.295425
0.315033
0.262745
0.295425
0.328105
0.305882
0.339869
0.305882
0.339869
0.322876
0.308497
0.300654
0.312418
0.328105
0.328105
0.300654
0.332026
0.332026
0.334641
0.30719
0.308497
0.364706
0.312418
0.29281
0.355556
0.347712
0.328105
0.337255
0.315033
0.313725
0.308497
0.321569
0.317647
0.30719
0.337255
0.333333
0.328105
0.332026
0.341176
0.332026
0.320261
0.301961
0.301961
0.284967
0.329412
0.320261
0.308497
0.318954
0.329412
0.328105
0.31634
0.345098
0.342484
0.321569
0.332026
0.256209
0.286275
0.313725
0.32549
0.313725
0.288889
0.320261
0.294118
0.308497
0.287582
0.359477
0.309804
0.303268
0.298039
0.318954
0.301961
0.381699
0.329412
0.31634
0.337255
0.334641
0.315033
0.320261
0.301961
0.337255
0.269281
0.333333
0.332026
0.355556
0.324183
0.311111
0.312418
0.324183
0.322876
0.322876
0.317647
0.326797
0.312418
0.334641
0.290196
0.300654
0.352941
0.312418
0.296732
0.321569
0.328105
0.321569
0.315033
0.329412
0.284967
0.311111
0.330719
0.324183
0.359477
0.311111
0.313725
0.304575
0.321569
0.298039
0.30719
0.296732
0.321569
0.328105
0.31634
0.183007
0.249673
0.315033
0.0679739
0.130719
0.30719
0.143791
0.215686
0.299346
0.368627
0.299346
0.313725
0.14902
0.224837
0.231373
0.304575
0.312418
0.375163
0.322876
0.266667
0.312418
0.27451
0.305882
0.308497
0.309804
0.309804
0.271895
0.301961
0.296732
0.299346
0.31634
0.299346
0.207843
0.311111
0.305882
0.299346
0.318954
0.155556
0.262745
0.224837
0.243137
0.281046
0.146405
0.277124
0.339869
0.356863
0.216993
0.121569
0.303268
0.372549
0.305882
0.351634
0.237908
0.347712
0.213072
0.309804
0.290196
0.278431
0.381699
0.345098
0.351634
0.30719
0.305882
0.339869
0.379085
0.372549
0.333333
0.322876
0.277124
0.31634
0.320261
0.347712
0.364706
0.369935
0.298039
0.25098
0.322876
0.305882
0.308497
0.321569
0.290196
0.296732
0.321569
0.326797
0.304575
0.338562
0.282353
0.320261
0.279739
0.291503
0.312418
0.288889
0.312418
0.291503
0.303268
0.278431
0.312418
0.303268
0.338562
0.329412
0.333333
0.332026
0.313725
0.299346
0.301961
0.291503
0.324183
0.290196
0.324183
0.295425
0.337255
0.315033
0.333333
0.31634
0.328105
0.315033
0.284967
0.29281
0.322876
0.352941
0.356863
0.326797
0.324183
0.332026
0.352941
0.372549
0.320261
0.321569
0.304575
0.303268
0.354248
0.32549
0.341176
0.332026
0.321569
0.290196
0.311111
0.315033
0.309804
0.300654
0.326797
0.334641
0.294118
0.318954
0.305882
0.321569
0.288889
0.362092
0.300654
0.304575
0.296732
0.312418
0.218301
0.156863
0.185621
0.24183
0.247059
0.295425
0.260131
0.288889
0.29281
0.300654
0.300654
0.169935
0.223529
0.25098
0.318954
0.31634
0.299346
0.308497
0.296732
0.315033
0.335948
0.312418
0.304575
0.30719
0.343791
0.305882
0.332026
0.31634
0.322876
0.299346
0.30719
0.321569
0.290196
0.328105
0.330719
0.309804
0.309804
0.30719
0.313725
0.345098
0.532026
0.388235
0.305882
0.371242
0.355556
0.317647
0.294118
0.332026
0.159477
0.299346
0.273203
0.329412
0.300654
0.309804
0.320261
0.322876
0.312418
0.469281
0.401307
0.147712
0.146405
0.228758
0.448366
0.419608
0.252288
0.220915
0.364706
0.324183
0.383007
0.458824
0.475817
0.402614
0.532026
0.321569
0.332026
0.305882
0.396078
0.320261
0.281046
0.324183
0.324183
0.342484
0.267974
0.284967
0.294118
0.290196
0.313725
0.31634
0.312418
0.312418
0.301961
0.296732
0.324183
0.324183
0.298039
0.321569
0.299346
0.354248
0.301961
0.313725
0.311111
0.288889
0.322876
0.301961
0.313725
0.313725
0.301961
0.334641
0.328105
0.32549
0.296732
0.275817
0.334641
0.287582
0.294118
0.304575
0.31634
0.322876
0.295425
0.341176
0.373856
0.284967
0.352941
0.300654
0.369935
0.337255
0.356863
0.332026
0.29281
0.329412
0.315033
0.339869
0.30719
0.31634
0.341176
0.311111
0.320261
0.334641
0.335948
0.31634
0.321569
0.303268
0.312418
0.335948
0.359477
0.35817
0.312418
0.30719
0.31634
0.321569
0.308497
0.321569
0.334641
0.309804
0.326797
0.299346
0.324183
0.333333
0.304575
0.296732
0.295425
0.298039
0.321569
0.329412
0.303268
0.295425
0.291503
0.321569
0.281046
0.294118
0.271895
0.286275
0.296732
0.299346
0.309804
0.320261
0.305882
0.299346
0.305882
0.281046
0.308497
0.333333
0.300654
0.301961
0.34902
0.305882
0.335948
0.328105
0.362092
0.330719
0.300654
0.329412
0.324183
0.329412
0.296732
0.290196
0.303268
0.320261
0.29281
0.362092
0.321569
0.334641
0.312418
0.326797
0.324183
0.324183
0.30719
0.326797
0.311111
0.308497
0.335948
0.315033
0.31634
0.313725
0.305882
0.342484
0.303268
0.317647
0.342484
0.329412
0.352941
0.346405
0.320261
0.300654
0.28366
0.301961
0.356863
0.308497
0.288889
0.31634
0.284967
0.32549
0.339869
0.318954
0.29281
0.330719
0.317647
0.311111
0.347712
0.345098
0.337255
0.326797
0.286275
0.30719
0.371242
0.347712
0.328105
0.337255
0.300654
0.301961
0.315033
0.341176
0.328105
0.31634
0.339869
0.34902
0.328105
0.347712
0.330719
0.354248
0.335948
0.333333
0.294118
0.347712
0.303268
0.312418
0.347712
0.299346
0.320261
0.31634
0.305882
0.34902
0.296732
0.304575
0.32549
0.328105
0.339869
0.313725
0.354248
0.31634
0.318954
0.328105
0.321569
0.371242
0.339869
0.334641
0.360784
0.34902
0.333333
0.317647
0.311111
0.345098
0.312418
0.31634
0.322876
0.317647
0.322876
0.329412
0.32549
0.309804
0.346405
0.341176
0.313725
0.350327
0.329412
0.333333
0.312418
0.295425
0.329412
0.311111
0.32549
0.317647
0.320261
0.309804
0.335948
0.324183
0.337255
0.332026
0.288889
0.277124
0.350327
0.324183
0.352941
0.300654
0.305882
0.261438
0.265359
0.347712
0.291503
0.300654
0.275817
0.339869
0.273203
0.290196
0.287582
0.284967
0.303268
0.30719
0.286275
0.304575
0.312418
0.345098
0.305882
0.291503
0.334641
0.328105
0.30719
0.322876
0.345098
0.27451
0.270588
0.315033
0.311111
0.288889
0.277124
0.304575
0.315033
0.309804
0.320261
0.322876
0.308497
0.308497
0.29281
0.318954
0.312418
0.324183
0.333333
0.277124
0.294118
0.294118
0.311111
0.30719
0.29281
0.317647
0.31634
0.298039
0.308497
0.298039
0.286275
0.30719
0.300654
0.303268
0.329412
0.298039
0.313725
0.288889
0.305882
0.313725
0.308497
0.308497
0.298039
0.332026
0.311111
0.299346
0.333333
0.332026
0.311111
0.337255
0.298039
0.308497
0.341176
0.324183
0.308497
0.308497
0.303268
0.30719
0.332026
0.326797
0.334641
0.322876
0.342484
0.315033
0.356863
0.305882
0.332026
0.304575
0.334641
0.300654
0.326797
0.303268
0.305882
0.324183
0.315033
0.321569
0.309804
0.299346
0.315033
0.330719
0.32549
0.342484
0.334641
0.324183
0.290196
0.313725
0.320261
0.312418
0.313725
0.320261
0.31634
0.30719
0.324183
0.298039
0.290196
0.298039
0.313725
0.301961
0.332026
0.326797
0.313725
0.291503
0.332026
0.30719
0.291503
0.321569
0.308497
0.28366
0.30719
0.288889
0.317647
0.277124
0.294118
0.294118
0.28366
0.295425
0.301961
0.330719
0.356863
0.303268
0.227451
0.371242
0.213072
0.338562
0.36732
0.30719
0.299346
0.305882
0.279739
0.335948
0.328105
0.355556
0.288889
0.300654
0.301961
0.294118
0.298039
0.305882
0.313725
0.300654
0.258824
0.294118
0.301961
0.291503
0.27451
0.290196
0.309804
0.30719
0.299346
0.277124
0.287582
0.282353
0.290196
0.305882
0.282353
0.304575
0.277124
0.317647
0.322876
0.311111
0.31634
0.28366
0.309804
0.355556
0.329412
0.346405
0.329412
0.313725
0.34902
0.330719
0.324183
0.317647
0.334641
0.332026
0.313725
0.202614
0.294118
0.34902
0.322876
0.330719
0.347712
0.311111
0.313725
0.338562
0.31634
0.193464
0.282353
0.278431
0.313725
0.133333
0.206536
0.281046
0.198693
0.296732
0.332026
0.330719
0.303268
0.338562
0.342484
0.351634
0.354248
0.290196
0.315033
0.313725
0.332026
0.312418
0.29281
0.305882
0.31634
0.311111
0.333333
0.32549
0.301961
0.309804
0.32549
0.334641
0.304575
0.315033
0.309804
0.320261
0.287582
0.284967
0.315033
0.281046
0.32549
0.31634
0.309804
0.295425
0.320261
0.31634
0.318954
0.31634
0.318954
0.288889
0.308497
0.29281
0.300654
0.294118
0.309804
0.30719
0.277124
0.299346
0.282353
0.290196
0.278431
0.287582
0.299346
0.303268
0.304575
0.287582
0.313725
0.294118
0.305882
0.312418
0.321569
0.309804
0.28366
0.29281
0.299346
0.290196
0.301961
0.301961
0.308497
0.303268
0.312418
0.284967
0.281046
0.301961
0.303268
0.277124
0.318954
0.29281
0.308497
0.257516
0.309804
0.267974
0.288889
0.296732
0.31634
0.284967
0.322876
0.303268
0.277124
0.303268
0.288889
0.309804
0.317647
0.30719
0.318954
0.284967
0.32549
0.281046
0.29281
0.301961
0.290196
0.313725
0.264052
0.254902
0.308497
0.346405
0.315033
0.278431
0.322876
0.334641
0.300654
0.346405
0.345098
0.333333
0.356863
0.326797
0.309804
0.324183
0.335948
0.308497
0.286275
0.296732
0.320261
0.300654
0.329412
0.304575
0.299346
0.304575
0.291503
0.305882
0.308497
0.291503
0.345098
0.312418
0.350327
0.342484
0.332026
0.352941
0.347712
0.330719
0.303268
0.338562
0.320261
0.347712
0.334641
0.335948
0.337255
0.318954
0.350327
0.341176
0.346405
0.355556
0.228758
0.322876
0.334641
0.338562
0.213072
0.321569
0.322876
0.318954
0.334641
0.339869
0.328105
0.335948
0.333333
0.305882
0.290196
0.300654
0.317647
0.329412
0.294118
0.322876
0.338562
0.342484
0.333333
0.333333
0.305882
0.29281
0.326797
0.328105
0.335948
0.313725
0.347712
0.345098
0.312418
0.320261
0.338562
0.354248
0.318954
0.313725
0.338562
0.369935
0.347712
0.322876
0.218301
0.321569
0.317647
0.230065
0.320261
0.146405
0.300654
0.230065
0.30719
0.311111
0.155556
0.146405
0.0614379
0.0679739
0.0679739
0.0679739
0.0614379
0.337255
0.335948
0.35817
0.312418
0.295425
0.139869
0.299346
0.309804
0.312418
0.326797
0.337255
0.318954
0.373856
0.295425
0.371242
0.295425
0.321569
0.328105
0.320261
0.326797
0.322876
0.304575
0.318954
0.313725
0.359477
0.317647
0.328105
0.322876
0.305882
0.326797
0.346405
0.341176
0.320261
0.284967
0.214379
0.215686
0.288889
0.286275
0.329412
0.286275
0.313725
0.32549
0.290196
0.130719
0.146405
0.31634
0.194771
0.295425
0.337255
0.329412
0.30719
0.324183
0.333333
0.318954
0.308497
0.290196
0.328105
0.337255
0.301961
0.30719
0.305882
0.294118
0.308497
0.295425
0.301961
0.270588
0.291503
0.303268
0.288889
0.309804
0.305882
0.322876
0.296732
0.343791
0.304575
0.308497
0.305882
0.30719
0.320261
0.317647
0.282353
0.318954
0.330719
0.299346
0.298039
0.300654
0.262745
0.290196
0.301961
0.296732
0.303268
0.31634
0.321569
0.324183
0.309804
0.301961
0.291503
0.266667
0.278431
0.318954
0.278431
0.298039
0.267974
0.309804
0.28366
0.305882
0.303268
0.303268
0.265359
0.28366
0.320261
0.279739
0.309804
0.281046
0.309804
0.286275
0.299346
0.257516
0.335948
0.313725
0.294118
0.326797
0.290196
0.330719
0.339869
0.279739
0.337255
0.326797
0.309804
0.346405
0.334641
0.265359
0.298039
0.281046
0.31634
0.295425
0.320261
0.296732
0.300654
0.309804
0.305882
0.313725
0.309804
0.262745
0.29281
0.267974
0.278431
0.321569
0.290196
0.288889
0.315033
0.309804
0.335948
0.324183
0.330719
0.311111
0.329412
0.298039
0.269281
0.329412
0.317647
0.347712
0.328105
0.27451
0.333333
0.311111
0.230065
0.317647
0.320261
0.294118
0.312418
0.312418
0.311111
0.219608
0.315033
0.304575
0.315033
0.345098
0.318954
0.320261
0.303268
0.309804
0.312418
0.335948
0.321569
0.31634
0.271895
0.301961
0.320261
0.291503
0.287582
0.335948
0.296732
0.288889
0.317647
0.312418
0.301961
0.308497
0.373856
0.299346
0.351634
0.317647
0.360784
0.329412
0.392157
0.364706
0.322876
0.30719
0.354248
0.322876
0.303268
0.380392
0.350327
0.304575
0.300654
0.368627
0.142484
0.219608
0.303268
0.220915
0.300654
0.346405
0.315033
0.304575
0.308497
0.304575
0.330719
0.31634
0.322876
0.298039
0.295425
0.317647
0.321569
0.315033
0.320261
0.305882
0.347712
0.303268
0.288889
0.309804
0.305882
0.287582
0.295425
0.320261
0.32549
0.317647
0.300654
0.299346
0.321569
0.281046
0.304575
0.271895
0.278431
0.329412
0.30719
0.321569
0.303268
0.329412
0.311111
0.335948
0.299346
0.309804
0.301961
0.31634
0.317647
0.309804
0.309804
0.288889
0.301961
0.295425
0.290196
0.290196
0.278431
0.300654
0.333333
0.288889
0.342484
0.311111
0.322876
0.294118
0.31634
0.329412
0.313725
0.312418
0.322876
0.328105
0.342484
0.304575
0.311111
0.376471
0.329412
0.31634
0.290196
0.333333
0.322876
0.351634
0.301961
0.35817
0.312418
0.264052
0.31634
0.326797
0.32549
0.295425
0.315033
0.303268
0.304575
0.300654
0.320261
0.321569
0.304575
0.282353
0.313725
0.305882
0.304575
0.30719
0.304575
0.320261
0.328105
0.30719
0.351634
0.330719
0.328105
0.273203
0.303268
0.320261
0.298039
0.290196
0.296732
0.324183
0.328105
0.286275
0.304575
0.301961
0.295425
0.266667
0.290196
0.295425
0.312418
0.318954
0.304575
0.313725
0.296732
0.31634
0.320261
0.291503
0.301961
0.28366
0.271895
0.271895
0.318954
0.299346
0.273203
0.311111
0.31634
0.284967
0.295425
0.301961
0.312418
0.291503
0.300654
0.30719
0.32549
0.318954
0.322876
0.324183
0.309804
0.32549
0.304575
0.350327
0.305882
0.313725
0.304575
0.301961
0.311111
0.284967
0.309804
0.284967
0.295425
0.287582
0.313725
0.296732
0.262745
0.30719
0.311111
0.291503
0.284967
0.309804
0.25098
0.267974
0.28366
0.284967
0.275817
0.267974
0.273203
0.329412
0.301961
0.343791
0.312418
0.279739
0.313725
0.313725
0.321569
0.339869
0.311111
0.326797
0.343791
0.330719
0.32549
0.298039
0.303268
0.320261
0.328105
0.304575
0.303268
0.31634
0.32549
0.328105
0.332026
0.321569
0.294118
0.313725
0.295425
0.299346
0.30719
0.328105
0.322876
0.320261
0.333333
0.317647
0.304575
0.299346
0.31634
0.342484
0.303268
0.324183
0.303268
0.291503
0.286275
0.300654