# vtk DataFile Version 1.0
Unstructured Grid Example
ASCII

DATASET UNSTRUCTURED_GRID
POINTS 3240 float
10 400 0
30 400 0
55 400 0
102 400 0
133 400 0
166 400 0
189 400 0
218 400 0
249 400 0
286 400 0
308 400 0
343 400 0
378 400 0
394 400 0
0 398 0
400 395 0
0 392 0
12 391 0
400 386 0
227 379 0
0 377 0
272 374 0
255 373 0
308 372 0
16 370 0
173 370 0
199 370 0
234 368 0
243 362 0
272 360 0
212 359 0
236 359 0
220 358 0
206 357 0
251 357 0
225 356 0
230 356 0
245 356 0
240 355 0
256 355 0
194 354 0
266 354 0
200 353 0
369 353 0
219 352 0
249 352 0
273 352 0
209 351 0
214 351 0
204 350 0
227 350 0
236 350 0
245 350 0
279 350 0
157 349 0
252 349 0
258 349 0
264 349 0
193 348 0
199 348 0
183 347 0
219 347 0
224 347 0
242 347 0
248 347 0
268 347 0
288 347 0
175 346 0
189 346 0
215 346 0
238 346 0
275 346 0
400 346 0
207 345 0
211 345 0
232 345 0
294 345 0
198 344 0
252 344 0
257 344 0
180 343 0
194 343 0
218 343 0
235 343 0
279 343 0
83 342 0
202 342 0
222 342 0
227 342 0
245 342 0
264 342 0
169 341 0
184 341 0
191 341 0
207 341 0
214 341 0
240 341 0
287 341 0
299 341 0
197 340 0
256 340 0
260 340 0
273 340 0
217 339 0
225 339 0
235 339 0
248 339 0
164 338 0
177 338 0
181 338 0
189 338 0
193 338 0
228 338 0
232 338 0
245 338 0
305 338 0
157 337 0
202 337 0
211 337 0
242 337 0
253 337 0
283 337 0
169 336 0
185 336 0
198 336 0
218 336 0
221 336 0
236 336 0
260 336 0
265 336 0
276 336 0
292 336 0
316 336 0
173 335 0
195 335 0
224 335 0
227 335 0
230 335 0
233 335 0
239 335 0
250 335 0
256 335 0
188 334 0
207 334 0
215 334 0
244 334 0
269 334 0
300 334 0
166 333 0
191 333 0
203 333 0
220 333 0
247 333 0
262 333 0
161 332 0
170 332 0
180 332 0
198 332 0
223 332 0
228 332 0
235 332 0
239 332 0
286 332 0
307 332 0
154 331 0
176 331 0
194 331 0
211 331 0
216 331 0
231 331 0
242 331 0
245 331 0
250 331 0
253 331 0
259 331 0
266 331 0
275 331 0
183 330 0
187 330 0
207 330 0
219 330 0
237 330 0
282 330 0
291 330 0
164 329 0
173 329 0
203 329 0
223 329 0
234 329 0
248 329 0
255 329 0
271 329 0
327 329 0
180 328 0
198 328 0
227 328 0
231 328 0
239 328 0
245 328 0
251 328 0
297 328 0
303 328 0
318 328 0
168 327 0
177 327 0
215 327 0
220 327 0
242 327 0
257 327 0
261 327 0
264 327 0
278 327 0
153 326 0
157 326 0
161 326 0
165 326 0
174 326 0
184 326 0
190 326 0
194 326 0
209 326 0
234 326 0
249 326 0
285 326 0
311 326 0
0 325 0
147 325 0
171 325 0
223 325 0
226 325 0
237 325 0
240 325 0
246 325 0
253 325 0
267 325 0
275 325 0
281 325 0
289 325 0
204 324 0
229 324 0
243 324 0
258 324 0
261 324 0
264 324 0
162 323 0
165 323 0
168 323 0
179 323 0
213 323 0
217 323 0
234 323 0
255 323 0
271 323 0
153 322 0
159 322 0
175 322 0
221 322 0
227 322 0
241 322 0
245 322 0
251 322 0
267 322 0
303 322 0
321 322 0
171 321 0
190 321 0
208 321 0
224 321 0
236 321 0
248 321 0
257 321 0
263 321 0
275 321 0
279 321 0
289 321 0
293 321 0
298 321 0
315 321 0
144 320 0
149 320 0
167 320 0
185 320 0
199 320 0
230 320 0
239 320 0
243 320 0
253 320 0
260 320 0
270 320 0
284 320 0
161 319 0
164 319 0
176 319 0
219 319 0
234 319 0
267 319 0
310 319 0
156 318 0
169 318 0
181 318 0
223 318 0
226 318 0
251 318 0
256 318 0
275 318 0
278 318 0
281 318 0
400 318 0
159 317 0
213 317 0
232 317 0
237 317 0
245 317 0
248 317 0
262 317 0
265 317 0
272 317 0
304 317 0
150 316 0
165 316 0
172 316 0
190 316 0
241 316 0
259 316 0
268 316 0
284 316 0
289 316 0
338 316 0
155 315 0
162 315 0
168 315 0
176 315 0
219 315 0
230 315 0
235 315 0
254 315 0
280 315 0
294 315 0
300 315 0
314 315 0
328 315 0
136 314 0
180 314 0
185 314 0
226 314 0
247 314 0
250 314 0
257 314 0
265 314 0
275 314 0
286 314 0
320 314 0
160 313 0
165 313 0
200 313 0
222 313 0
242 313 0
261 313 0
271 313 0
278 313 0
308 313 0
149 312 0
154 312 0
157 312 0
173 312 0
217 312 0
228 312 0
234 312 0
239 312 0
254 312 0
267 312 0
288 312 0
291 312 0
297 312 0
168 311 0
206 311 0
212 311 0
246 311 0
249 311 0
263 311 0
275 311 0
282 311 0
294 311 0
131 310 0
159 310 0
162 310 0
165 310 0
180 310 0
224 310 0
231 310 0
236 310 0
243 310 0
252 310 0
279 310 0
285 310 0
305 310 0
311 310 0
148 309 0
171 309 0
220 309 0
227 309 0
258 309 0
265 309 0
270 309 0
273 309 0
289 309 0
144 308 0
151 308 0
168 308 0
176 308 0
186 308 0
192 308 0
238 308 0
241 308 0
247 308 0
254 308 0
281 308 0
292 308 0
302 308 0
155 307 0
158 307 0
161 307 0
230 307 0
234 307 0
244 307 0
251 307 0
261 307 0
286 307 0
295 307 0
298 307 0
141 306 0
165 306 0
172 306 0
201 306 0
216 306 0
227 306 0
271 306 0
275 306 0
278 306 0
289 306 0
305 306 0
313 306 0
319 306 0
333 306 0
146 305 0
168 305 0
180 305 0
224 305 0
232 305 0
240 305 0
247 305 0
255 305 0
258 305 0
268 305 0
300 305 0
309 305 0
371 305 0
149 304 0
154 304 0
157 304 0
160 304 0
175 304 0
210 304 0
221 304 0
229 304 0
243 304 0
250 304 0
261 304 0
264 304 0
282 304 0
296 304 0
143 303 0
184 303 0
234 303 0
237 303 0
253 303 0
270 303 0
273 303 0
287 303 0
290 303 0
293 303 0
302 303 0
127 302 0
162 302 0
165 302 0
190 302 0
215 302 0
224 302 0
227 302 0
248 302 0
258 302 0
266 302 0
276 302 0
279 302 0
314 302 0
146 301 0
149 301 0
153 301 0
156 301 0
159 301 0
169 301 0
198 301 0
204 301 0
230 301 0
239 301 0
244 301 0
255 301 0
261 301 0
282 301 0
297 301 0
300 301 0
304 301 0
310 301 0
325 301 0
179 300 0
219 300 0
234 300 0
252 300 0
270 300 0
285 300 0
289 300 0
292 300 0
307 300 0
140 299 0
143 299 0
151 299 0
161 299 0
174 299 0
212 299 0
222 299 0
226 299 0
248 299 0
257 299 0
265 299 0
275 299 0
280 299 0
302 299 0
352 299 0
165 298 0
186 298 0
208 298 0
230 298 0
239 298 0
245 298 0
254 298 0
268 298 0
309 298 0
336 298 0
123 297 0
137 297 0
149 297 0
154 297 0
158 297 0
177 297 0
192 297 0
233 297 0
236 297 0
242 297 0
278 297 0
288 297 0
292 297 0
295 297 0
143 296 0
146 296 0
161 296 0
204 296 0
214 296 0
223 296 0
226 296 0
248 296 0
251 296 0
257 296 0
261 296 0
283 296 0
298 296 0
301 296 0
304 296 0
315 296 0
321 296 0
152 295 0
169 295 0
173 295 0
229 295 0
238 295 0
244 295 0
254 295 0
266 295 0
272 295 0
280 295 0
309 295 0
327 295 0
139 294 0
149 294 0
156 294 0
182 294 0
211 294 0
218 294 0
233 294 0
274 294 0
278 294 0
294 294 0
133 293 0
142 293 0
145 293 0
162 293 0
176 293 0
188 293 0
196 293 0
236 293 0
242 293 0
248 293 0
251 293 0
257 293 0
264 293 0
269 293 0
276 293 0
283 293 0
286 293 0
291 293 0
300 293 0
304 293 0
307 293 0
312 293 0
137 292 0
154 292 0
159 292 0
221 292 0
225 292 0
245 292 0
273 292 0
280 292 0
297 292 0
149 291 0
165 291 0
171 291 0
184 291 0
204 291 0
228 291 0
231 291 0
234 291 0
239 291 0
255 291 0
260 291 0
266 291 0
278 291 0
309 291 0
319 291 0
341 291 0
146 290 0
178 290 0
191 290 0
209 290 0
214 290 0
242 290 0
248 290 0
252 290 0
268 290 0
271 290 0
274 290 0
281 290 0
286 290 0
290 290 0
293 290 0
300 290 0
303 290 0
306 290 0
313 290 0
332 290 0
118 289 0
138 289 0
154 289 0
187 289 0
200 289 0
218 289 0
221 289 0
236 289 0
257 289 0
265 289 0
133 288 0
143 288 0
181 288 0
224 288 0
229 288 0
232 288 0
239 288 0
277 288 0
283 288 0
288 288 0
295 288 0
316 288 0
129 287 0
146 287 0
149 287 0
152 287 0
157 287 0
163 287 0
168 287 0
173 287 0
194 287 0
206 287 0
210 287 0
216 287 0
244 287 0
248 287 0
263 287 0
266 287 0
270 287 0
273 287 0
280 287 0
303 287 0
308 287 0
323 287 0
137 286 0
141 286 0
185 286 0
213 286 0
219 286 0
222 286 0
237 286 0
241 286 0
255 286 0
259 286 0
275 286 0
285 286 0
290 286 0
298 286 0
312 286 0
400 286 0
132 285 0
144 285 0
155 285 0
203 285 0
233 285 0
246 285 0
252 285 0
267 285 0
272 285 0
282 285 0
295 285 0
305 285 0
114 284 0
148 284 0
151 284 0
159 284 0
178 284 0
190 284 0
207 284 0
211 284 0
217 284 0
225 284 0
228 284 0
239 284 0
249 284 0
265 284 0
270 284 0
287 284 0
302 284 0
315 284 0
320 284 0
340 284 0
129 283 0
135 283 0
138 283 0
174 283 0
198 283 0
222 283 0
262 283 0
273 283 0
277 283 0
292 283 0
298 283 0
311 283 0
331 283 0
132 282 0
143 282 0
146 282 0
153 282 0
162 282 0
166 282 0
170 282 0
181 282 0
194 282 0
205 282 0
209 282 0
219 282 0
233 282 0
236 282 0
242 282 0
245 282 0
251 282 0
256 282 0
259 282 0
264 282 0
269 282 0
281 282 0
289 282 0
304 282 0
308 282 0
126 281 0
150 281 0
186 281 0
189 281 0
212 281 0
215 281 0
226 281 0
229 281 0
239 281 0
267 281 0
275 281 0
285 281 0
296 281 0
316 281 0
322 281 0
346 281 0
122 280 0
130 280 0
136 280 0
140 280 0
155 280 0
159 280 0
197 280 0
200 280 0
207 280 0
258 280 0
261 280 0
270 280 0
293 280 0
299 280 0
311 280 0
326 280 0
145 279 0
148 279 0
152 279 0
176 279 0
183 279 0
193 279 0
218 279 0
235 279 0
242 279 0
248 279 0
251 279 0
254 279 0
265 279 0
268 279 0
273 279 0
278 279 0
282 279 0
290 279 0
303 279 0
308 279 0
318 279 0
133 278 0
164 278 0
188 278 0
202 278 0
205 278 0
211 278 0
215 278 0
222 278 0
229 278 0
232 278 0
238 278 0
257 278 0
262 278 0
313 278 0
331 278 0
336 278 0
110 277 0
116 277 0
120 277 0
130 277 0
137 277 0
141 277 0
154 277 0
160 277 0
168 277 0
179 277 0
196 277 0
226 277 0
245 277 0
259 277 0
264 277 0
271 277 0
276 277 0
286 277 0
305 277 0
310 277 0
322 277 0
124 276 0
144 276 0
147 276 0
157 276 0
172 276 0
199 276 0
209 276 0
220 276 0
242 276 0
251 276 0
255 276 0
261 276 0
280 276 0
294 276 0
317 276 0
378 276 0
128 275 0
133 275 0
150 275 0
176 275 0
188 275 0
192 275 0
204 275 0
217 275 0
222 275 0
233 275 0
238 275 0
248 275 0
263 275 0
268 275 0
273 275 0
289 275 0
299 275 0
308 275 0
314 275 0
346 275 0
137 274 0
155 274 0
183 274 0
201 274 0
207 274 0
211 274 0
214 274 0
228 274 0
244 274 0
258 274 0
303 274 0
324 274 0
328 274 0
117 273 0
124 273 0
131 273 0
141 273 0
147 273 0
152 273 0
162 273 0
166 273 0
194 273 0
198 273 0
216 273 0
219 273 0
225 273 0
240 273 0
252 273 0
255 273 0
277 273 0
285 273 0
312 273 0
127 272 0
135 272 0
144 272 0
159 272 0
179 272 0
187 272 0
191 272 0
209 272 0
222 272 0
231 272 0
249 272 0
263 272 0
266 272 0
270 272 0
273 272 0
281 272 0
292 272 0
308 272 0
315 272 0
320 272 0
333 272 0
340 272 0
113 271 0
139 271 0
149 271 0
156 271 0
172 271 0
184 271 0
205 271 0
211 271 0
214 271 0
217 271 0
220 271 0
235 271 0
238 271 0
[...]
CELL_DATA 3240
COLOR_SCALARS lut 1
0.114281
0.263653
0.456181
0.523641
0.411291
0.321505
0.277566
0.250188
0.245682
0.28369
0.336756
0.413673
0.201806
0.0898664
0.0708155
0.0845287
0.101536
0.187717
0.142006
0.272208
0.209624
0.277389
0.224982
0.458741
0.400057
0.342174
0.212787
0.151397
0.100726
0.127194
0.0887482
0.085928
0.0813704
0.0852874
0.0785907
0.0751259
0.0755914
0.0727442
0.0722688
0.076686
0.0904185
0.0805158
0.0765793
0.671129
0.0695394
0.0644238
0.0820769
0.0708777
0.0704447
0.0683596
0.0658448
0.0654689
0.0628988
0.0853663
0.174233
0.062367
0.0657869
0.0680881
0.0673657
0.0640724
0.0772426
0.0636543
0.0622518
0.0609741
0.0599954
0.0689452
0.090109
0.0857381
0.0656019
0.0636861
0.0598893
0.0731711
0.419326
0.0621516
0.0629143
0.057808
0.0930366
0.0571284
0.0600056
0.0637965
0.0674381
0.0561144
0.057076
0.0546514
0.0739705
1
0.0556266
0.0542297
0.053671
0.0544742
0.0674135
0.0743216
0.0589552
0.054466
0.0562022
0.0555018
0.0523199
0.0772254
0.0890341
0.0521831
0.0602696
0.0636167
0.071005
0.0515854
0.0500256
0.0493267
0.0519032
0.0731081
0.0590397
0.0565146
0.0521631
0.051022
0.048955
0.0485212
0.0493425
0.0920164
0.0918385
0.0517775
0.0525253
0.0476981
0.053472
0.0722835
0.0603012
0.0522751
0.0505919
0.0488782
0.0479633
0.0468539
0.0581757
0.0620441
0.06814
0.0800463
0.123588
0.056241
0.0504257
0.0473618
0.0473706
0.0470862
0.0466357
0.0460084
0.048491
0.0533052
0.0510298
0.0534005
0.0502815
0.0454016
0.0613029
0.0831309
0.0564505
0.0513476
0.053588
0.0476375
0.0452553
0.0549773
0.0610869
0.0526687
0.0513901
0.0530156
0.0470618
0.0467253
0.0452054
0.0444862
0.0700247
0.0846167
0.0768633
0.0508506
0.0534873
0.0550842
0.0509633
0.0459966
0.0438605
0.0438482
0.0449096
0.046404
0.0502212
0.0545587
0.0591005
0.0515696
0.0529473
0.0580101
0.0491684
0.0442726
0.0618183
0.0751257
0.0511451
0.0491375
0.0591226
0.0477427
0.0448764
0.0434189
0.0459081
0.0540395
0.144884
0.0508491
0.0589918
0.047122
0.0458622
0.0436273
0.0431349
0.043663
0.0797623
0.0812397
0.0983614
0.0474801
0.049358
0.0559798
0.0501735
0.0432843
0.0454897
0.0474561
0.04879
0.0539685
0.0641722
0.0556614
0.050094
0.0473806
0.0479264
0.054837
0.0598912
0.0617404
0.0642598
0.044698
0.0427433
0.0586824
0.082919
0.601092
0.0802136
0.0468174
0.0489667
0.0477518
0.0438678
0.0434898
0.0428806
0.0428973
0.0477308
0.0503165
0.052926
0.063293
0.0689098
0.0466462
0.0433276
0.0438126
0.0448734
0.0458591
0.0469529
0.0459157
0.0458873
0.0517821
0.0633477
0.0561559
0.0445626
0.0423638
0.0470556
0.0565636
0.0485157
0.048575
0.0510105
0.0472138
0.0435644
0.0430616
0.0417825
0.0449514
0.0756325
0.0924591
0.0466989
0.067759
0.0727526
0.0486064
0.0438598
0.0421668
0.0416989
0.043127
0.0468461
0.0476624
0.0560131
0.0620929
0.069488
0.0821853
0.0760484
0.0613207
0.0457352
0.0619567
0.0755556
0.0455574
0.0434982
0.0433007
0.0409898
0.041768
0.0446903
0.0492618
0.0460553
0.0455881
0.0505599
0.0540329
0.0439021
0.0431148
0.075672
0.0485079
0.0466266
0.0577944
0.0491847
0.0469606
0.0406918
0.040256
0.0457734
0.0460812
0.0464962
0.383945
0.0463128
0.0670266
0.0439996
0.0430256
0.0423916
0.0413727
0.0408737
0.0417147
0.0447065
0.0668437
0.0534208
0.046067
0.0486526
0.0751405
0.0428742
0.0399777
0.0426399
0.0464444
0.049182
0.171769
0.0474471
0.0458183
0.0470811
0.05276
0.054396
0.0443667
0.0428704
0.0395995
0.0455628
0.0522504
0.0588065
0.07613
0.108194
0.0858391
0.0593957
0.0681937
0.0465175
0.0414264
0.0403847
0.0394134
0.0410664
0.045505
0.0460802
0.0854584
0.0457309
0.0466284
0.0882214
0.0502883
0.0427012
0.0398358
0.0439086
0.0455146
0.0639162
0.0502205
0.0463852
0.0456325
0.0508362
0.0580546
0.0451618
0.0428588
0.0427339
0.0395002
0.0416582
0.0454897
0.0464417
0.050328
0.047967
0.0824147
0.0691645
0.0419291
0.0408779
0.0401769
0.0453551
0.0448309
0.0468674
0.0889756
0.0454937
0.0461772
0.0470398
0.0612104
0.0481861
0.0437515
0.0427672
0.0427952
0.0401096
0.0451282
0.0444002
0.0548971
0.0648654
0.048477
0.050003
0.0526402
0.0458106
0.0395875
0.0407098
0.042948
0.0444966
0.0440135
0.052553
0.045627
0.0484427
0.0552608
0.072067
0.0839438
0.0430698
0.0431926
0.0420555
0.0400437
0.0444653
0.0437041
0.0489142
0.0445095
0.0450069
0.0458943
0.0444096
0.043298
0.0430322
0.0410103
0.0400585
0.0434715
0.0436107
0.0448726
0.0551106
0.0473908
0.0514361
0.0861779
0.0575833
0.0460124
0.0428807
0.0442866
0.0443567
0.0427765
0.0494799
0.0641734
0.0812077
0.123638
0.0470973
0.0490209
0.0609335
0.0481643
0.044064
0.0436088
0.0426361
0.0406481
0.0403888
0.0414077
0.0441926
0.0541608
0.489821
0.0443991
0.0437312
0.0444165
0.0455229
0.0546822
0.0663367
0.0507525
0.0452997
0.0435322
0.0420373
0.0405338
0.0405887
0.042919
0.0418429
0.0486833
0.0658711
0.0440555
0.0438513
0.0415861
0.041545
0.0424081
0.0418129
0.041435
0.041154
0.0438272
0.0819945
0.0466915
0.0482599
0.0744801
0.0565558
0.0482652
0.0465083
0.0428582
0.0411688
0.040682
0.0422667
0.0421262
0.0615292
0.0442753
0.0430088
0.0430265
0.0439644
0.0453648
0.0510474
0.0806775
0.0735084
0.0453291
0.04391
0.04348
0.0418264
0.0410711
0.0412974
0.0405402
0.0414383
0.0438778
0.0515101
0.0954421
0.0581781
0.0516796
0.0443716
0.0426116
0.0406153
0.0406341
0.0404082
0.0401911
0.0461447
0.0488973
0.0453802
0.0423958
0.047049
0.0549494
0.0576245
0.0492333
0.0469442
0.04324
0.0420823
0.0406009
0.0406219
0.0403877
0.0414487
0.215441
0.0498959
0.0628805
0.0621679
0.0451524
0.0437228
0.0433729
0.0428631
0.0401117
0.0471797
0.110872
0.0865255
0.0514541
0.0419234
0.0433972
0.0458565
0.056244
0.0688324
0.044191
0.0438224
0.0433859
0.0396355
0.0396252
0.0396448
0.0394984
0.0436183
0.0420806
0.0483673
0.0664786
0.05305
0.047623
0.0461277
0.043503
0.043599
0.0426017
0.0414507
0.0392355
0.0394567
0.0400151
0.0412697
0.0563271
0.0738398
0.0426484
0.0532341
0.0549658
0.0445355
0.0431649
0.0431169
0.0433881
0.03981
0.0391236
0.0389557
0.0449224
0.0890619
0.0462124
0.0416579
0.0454064
0.0558548
0.0540155
0.0491211
0.0432091
0.0388413
0.0387849
0.0395834
0.054236
0.0430181
0.0416352
0.0505542
0.055422
0.0577406
0.0662095
0.0425958
0.0425762
0.0432722
0.0435673
0.0424204
0.0398862
0.0388096
0.0386457
0.0388857
0.0391794
0.0397401
0.039499
0.0403972
0.0420009
0.0473834
0.0472526
0.0442756
0.0486064
0.0462466
0.0445211
0.0426006
0.0384638
0.038671
0.0396447
0.0415597
0.0532002
0.0551039
0.0539287
0.059852
0.042934
0.0422709
0.0419462
0.0418818
0.0425527
0.040731
0.0388139
0.0385921
0.0427326
0.059699
0.0992081
0.0410602
0.0547798
0.0562554
0.0518935
0.0475707
0.0417466
0.0424569
0.0427378
0.0382812
0.0381793
0.0383411
0.0390007
0.0397244
0.0403746
0.0405753
0.039773
0.0398812
0.0406266
0.0465724
0.0863698
0.0856545
0.0444377
0.044452
0.0528
0.059971
0.04498
0.0439665
0.0412478
0.0411337
0.0385136
0.0495628
0.041299
0.0534513
0.0423937
0.0414066
0.041099
0.0410473
0.0388901
0.0399542
0.0408637
0.0412181
0.0497279
0.0550483
0.040904
0.041457
0.0429229
0.0473366
0.0535547
0.0561762
0.0567481
0.0543884
0.0513488
0.0472968
0.0439034
0.0410444
0.0413374
0.0384478
0.0379406
0.0379422
0.0383579
0.039762
0.0401962
0.040972
0.064245
0.0439544
0.0417151
0.0513151
0.0442353
0.0423522
0.0416909
0.0405936
0.0407135
0.0405655
0.0393146
0.0389569
0.0414048
0.042391
0.0415257
0.0431868
0.304197
0.0483743
0.0410202
0.0452686
0.0511511
0.0404417
0.0406068
0.040701
0.0377011
0.0384153
0.0413331
0.0430468
0.0405671
0.0868518
0.0413967
0.0424334
0.0496806
0.0558298
0.0491943
0.0463977
0.04355
0.0414632
0.040459
0.0403617
0.0404517
0.0404341
0.0376716
0.038085
0.0433897
0.0414979
0.0452586
0.0531789
0.0829109
0.0504347
0.044261
0.042574
0.0580922
0.0497974
0.0403161
0.037936
0.0391465
0.0407526
0.0452418
0.0437454
0.0417724
0.0755098
0.0461634
0.0415008
0.0415369
0.0437669
0.0534418
0.057326
0.0587895
0.0537327
0.0478617
0.0456032
0.0430573
0.0402139
0.0402005
0.0403093
0.0404087
0.0402167
0.0400492
0.0393076
0.0385124
0.0376526
0.0381062
0.0432578
0.0459845
0.0420676
0.0412547
0.0523195
0.0424994
0.0492265
0.0474204
0.041035
0.0402813
0.0398512
0.0400052
0.0405038
0.0378483
0.0408163
0.0459641
0.0468706
0.0449194
0.054071
0.0881805
0.057201
0.0466301
0.0429433
0.0420773
0.0453098
0.0494611
0.0460465
0.0457379
0.0426338
0.0387086
0.0380357
0.0388272
0.0491414
0.0465143
0.0418757
0.0616784
0.042392
0.0426441
0.0435732
0.0570735
0.0512293
0.0451712
0.0393945
0.0403575
0.0406637
0.0401103
0.0399769
0.0396677
0.0378889
0.0384151
0.0406478
0.0441066
0.0469446
0.0505125
0.0450226
0.0424259
0.046283
0.0436472
0.0549047
0.0464558
0.0432997
0.0421709
0.0400988
0.0393657
0.0392789
0.0399712
0.0401833
0.040809
0.0391139
0.0380824
0.0425574
0.0705203
0.0772015
0.0819448
0.064205
0.0562492
0.0447523
0.0425667
0.0426998
0.0446513
0.0497939
0.0574069
0.0541052
0.0435052
0.0397002
0.0407052
0.0387736
0.0381828
0.0403254
0.0440494
0.0521517
0.0454502
0.0427636
0.051032
0.0492862
0.0434848
0.0437528
0.0465312
0.0573771
0.0425082
0.039984
0.0390025
0.0413723
0.0404277
0.0399259
0.0385679
0.0488427
0.0554897
0.0446019
0.38094
0.0448834
0.0428462
0.0441658
0.0552723
0.0451533
0.0431262
0.0408038
0.0388146
0.0391029
0.04067
0.0416055
0.0408957
0.0386286
0.0395567
0.042647
0.0569846
0.0532078
0.044635
0.0432058
0.0813806
0.0426715
0.0451753
0.0488805
0.0409724
0.0397142
0.0390447
0.0387277
0.0401033
0.0418437
0.0396972
0.049933
0.0535091
0.0619521
0.0559368
0.0466331
0.0426947
0.0437917
0.0450401
0.0447405
0.0500384
0.0534759
0.0418063
0.0410006
0.0385195
0.0386515
0.0395745
0.0427212
0.041131
0.0406803
0.0480106
0.057257
0.0436213
0.0438564
0.0423685
0.0450045
0.0471889
0.0512801
0.0449748
0.0426753
0.0387985
0.0389336
0.0408628
0.0417729
0.039493
0.0398973
0.0417087
0.0441027
0.0539411
0.0616851
0.0458946
0.0439362
0.0474588
0.0735324
0.0800682
0.0607749
0.0433837
0.0455464
0.045578
0.0537463
0.0468567
0.0390004
0.0383584
0.0382045
0.0382842
0.0385588
0.0423975
0.0434711
0.0407678
0.040085
0.0491075
0.0777569
0.0496899
0.0447618
0.0458558
0.0452724
0.0523213
0.0406109
0.0396302
0.0390516
0.0393029
0.0443831
0.0433093
0.0471744
0.0623778
0.0569246
0.0444775
0.054043
0.0427869
0.0418964
0.0447386
0.0497965
0.0511735
0.042153
0.0383203
0.0380855
0.0379355
0.0379961
0.0404505
0.041844
0.0429751
0.0423879
0.0418472
0.0406029
0.0414779
0.0437616
0.0515718
0.04629
0.0444909
0.0461815
0.0657483
0.0847063
0.0426931
0.0459909
0.0460162
0.047349
0.0458502
0.0438939
0.0398921
0.0385155
0.0380731
0.0385102
0.0447604
0.0451708
0.0586139
0.0614857
0.0502655
0.0499817
0.0560359
0.0436838
0.0419546
0.0437956
0.0454325
0.0456528
0.0477035
0.0505798
0.0411319
0.0381599
0.0379278
0.0377483
0.0392021
0.0464032
0.0420577
0.0475813
0.0470778
0.0417879
0.0486045
0.045498
0.0393407
0.0385659
0.0377076
0.0377856
0.0414603
0.0445121
0.0437145
0.0422424
0.043376
0.0515957
0.0532909
0.0468067
0.0448559
0.0472453
0.0584625
0.0865788
0.0423962
0.0457754
0.0463269
0.0495969
0.0473961
0.0467167
0.037912
0.0382218
0.040199
0.0433652
0.046307
0.0434744
0.0432509
0.0622565
0.0450584
0.0573754
0.0506842
0.0423634
0.0433753
0.0444378
0.0460701
0.0480664
0.0492586
0.0446944
0.0428071
0.041031
0.0384352
0.0377361
0.0377096
0.038625
0.0482828
0.0460881
0.0488212
0.0488353
0.0462041
0.0781335
0.0436926
0.0423772
0.0465306
0.0483525
0.0394487
0.0379497
0.0424083
0.0470137
0.0466706
0.0456079
0.0444398
0.0444529
0.045598
0.0448645
0.091663
0.0457583
0.0430403
0.0425993
0.0478595
0.0478519
0.0480984
0.0477429
0.0384722
0.037995
0.0378586
0.038276
0.0389997
0.0454275
0.0553345
0.0593877
0.0559809
0.0543442
0.0657009
0.0481932
0.0436965
0.0459929
0.0491102
0.0490741
0.048433
0.0480701
0.0470576
0.0447503
0.0424226
0.0383226
0.0380334
0.0405002
0.0459604
0.0473478
0.0487553
0.0595684
0.048365
0.0461817
0.044828
0.0454561
0.0474705
0.86294
0.0737152
0.0445322
0.0438312
0.044769
0.0475689
0.0497296
0.0382395
0.0389071
0.042945
0.0487595
0.047063
0.046947
0.0519672
0.0553439
0.0440123
0.0442823
0.0480045
0.0500025
0.04076
0.038624
0.0384207
0.0386139
0.0388906
0.0400553
0.0505016
0.0501324
0.0483665
0.0476231
0.0502399
0.0450742
0.056435
0.0497577
0.0467765
0.0447454
0.0465135
0.0499402
0.0511061
0.0481203
0.0517668
0.0506723
0.0461944
0.0394447
0.0387846
0.0448412
0.0552257
0.0508919
0.0581932
0.0836415
0.094176
0.0450128
0.0451472
0.0454395
0.0488395
0.0512564
0.0497926
0.0431299
0.0390253
0.0398834
0.0492446
0.0513013
0.0565412
0.0626291
0.0457546
0.0448735
0.0454819
0.0464564
0.046933
0.0513556
0.0409265
0.0395185
0.0397711
0.040807
0.0419651
0.0509405
0.0502487
0.051094
0.0620957
0.0628971
0.0515391
0.0474565
0.136797
0.0509847
0.0472234
0.0461383
0.0463377
0.0470867
0.0516243
0.0503111
0.0517733
0.0400103
0.0398482
0.0404176
0.046784
0.0491252
0.0609117
0.0572615
0.0452478
0.0469771
0.0513599
0.0642251
0.0964118
0.0507692
0.0537689
0.0504059
0.0493345
0.0496068
0.0457444
0.0439471
0.050987
0.0580275
0.065096
0.0496547
0.0506499
0.0497558
0.0421066
0.0405309
0.040957
0.0411973
0.0413501
0.0417032
0.0506653
0.0486971
0.0468704
0.0454438
0.0490425
0.0510646
0.0509965
0.0550285
0.0534834
0.0552511
0.0566707
0.044726
0.0452263
0.0471618
0.0498391
0.053246
0.0692983
0.0556872
0.0462906
0.0511733
0.090489
0.0558154
0.0500048
0.0546433
0.0509637
0.0515978
0.0419705
0.0414006
0.0427013
0.0437525
0.0484351
0.0711272
0.0518041
0.0465601
0.045829
0.0723842
0.0945488
0.0493647
0.0525334
0.0545259
0.0509708
0.0498582
0.0422195
0.0425153
0.0424059
0.0506013
0.0604623
0.0682334
0.07913
0.0452903
0.0467987
0.0514015
0.0550305
0.0563703
0.0537127
0.0554054
0.0448543
0.0444479
0.0457336
0.0491531
0.0531265
0.0520829
0.0780054
0.052645
0.0566169
0.0548813
0.0424534
0.0424987
0.0428651
0.0431578
0.0471759
0.049715
0.0463915
0.0455399
0.0449945
0.102037
0.0626485
0.0509265
0.0578257
0.0592611
0.059109
0.0534186
0.0526903
0.0509149
0.0430912
0.0432235
0.0426784
0.0562926
0.0676443
0.0540206
0.046814
0.0935818
0.0577881
0.0553635
0.055192
0.0465874
0.0437933
0.0431634
0.0438366
0.0447555
0.0469151
0.0487607
0.0856488
0.0480114
0.0448225
0.0447393
0.0529622
0.0625268
0.26115
0.0516038
0.0601358
0.0591249
0.0429612
0.0428296
0.050628
0.0711756
0.0460792
0.0767323
0.0528984
0.0633361
0.0577829
0.054297
0.0500051
0.0427978
0.0432473
0.0420727
0.0850682
0.0588394
0.0562912
0.052831
0.0528703
0.0441807
0.0430502
0.0419065
0.0421402
0.0426711
0.0437214
0.0446425
0.0473765
0.0579318
0.0637641
0.050235
0.0466966
0.0450584
0.0438191
0.0981222
0.0526078
0.064787
0.0576309
0.0519182
0.0429204
0.0422106
0.0561552
0.0480576
0.0451829
0.0554414
0.0633614
0.0690012
0.0646917
0.0552631
0.0448964
0.0426238
0.0431004
0.0411346
0.0455058
0.0770607
0.0433875
0.558752
0.0861788
0.0542569
0.0617114
0.052335
0.048388
0.0459982
0.0426543
0.0424484
0.0411584
0.040771
0.0414804
0.0425515
0.0506676
0.0634042
0.0868206
0.0508067
0.0453912
0.0472072
0.0641072
0.106325
0.290429
0.0533064
0.0511572
0.0603266
0.0692567
0.0696041
0.0492808
0.0431395
0.0430826
0.0442416
0.0475613
0.069624
0.0475177
0.0430873
0.0611475
0.0597557
0.0561374
0.0439141
0.0434494
0.0429679
0.0453334
0.0547415
0.0457248
0.0432695
0.0440334
0.0504137
0.0852477
0.0518052
0.0448843
0.0423339
0.0425394
0.0411187
0.0402006
0.040275
0.0409162
0.0502154
0.054706
0.0488232
0.0441579
0.0591889
0.0504165
0.066346
0.0711896
0.0497623
0.0475725
0.0432991
0.0426177
0.0418084
0.0443584
0.0461361
0.0473679
0.063822
0.0581463
0.0424314
0.0428863
0.049681
0.0562167
0.0608608
0.0634499
0.0434464
0.0439464
0.0403957
0.0558701
0.0742726
0.0505546
0.0459731
0.0454969
0.0516193
0.0696003
0.0615389
0.0613613
0.0552134
0.044665
0.0424955
0.0422669
0.042677
0.0419049
0.0399971
0.0455369
0.0473133
0.0654984
0.0722427
0.0757117
0.0474562
0.0442595
0.0516043
0.0641853
0.0520435
0.0516137
0.0475497
0.043465
0.0440933
0.0435371
0.0400568
0.0420448
0.0435615
0.0458403
0.0499047
0.0423762
0.0419927
0.042906
0.0803333
0.0490431
0.0580435
0.0614028
0.0406665
0.045466
0.0468826
0.0589647
0.050222
0.0443942
0.0943355
0.054721
0.0543083
0.0613946
0.0643609
0.0613367
0.0434002
0.0423204
0.0424078
0.0398613
0.0453123
0.0535343
0.0458247
0.0430208
0.0422664
0.0440986
0.0484545
0.073598
0.0958691
0.049479
0.0639543
0.0653915
0.0600661
0.0615663
0.0559376
0.048105
0.0422546
0.0417039
0.0432432
0.0433011
0.0396415
0.0404279
0.0416211
0.0457797
0.0453587
0.055661
0.0417592
0.0574165
0.0633311
0.0487996
0.0482267
0.0517433
0.0611037
0.0445203
0.0421479
0.0405859
0.0431945
0.0444144
0.0470868
0.0619587
0.0487688
0.0443122
0.0417863
0.0450189
0.050886
0.0427576
0.041214
0.0391517
0.0395709
0.044708
0.0440153
0.0446003
0.0578655
0.0540479
0.0511467
0.0422663
0.0426043
0.0635451
0.0606442
0.0625077
0.0463052
0.0413312
0.0409902
0.0390275
0.0403038
0.0416901
0.0444338
0.045681
0.0474454
0.0510292
0.0456281
0.0432106
0.0438133
0.0480394
0.0545574
0.0485017
0.0615882
0.0615611
0.0581011
0.0558941
0.0437265
0.0412687
0.0412239
0.0397251
0.0447437
0.0434497
0.0520054
0.0545462
0.0415828
0.0639173
0.0625367
0.050863
0.0557983
0.0629109
0.057208
0.0606649
0.049822
0.042013
0.040537
0.0401092
0.0387919
0.0385878
0.0390488
0.0424075
0.0536222
0.0530662
0.0499053
0.0418825
0.0417986
0.0425012
0.0532106
0.0857782
0.0472341
0.0647089
0.0617188
0.0399635
0.0400823
0.0419513
0.0438081
0.0415261
0.0432536
0.0449428
0.0513699
0.0444764
0.0444597
0.0751867
0.09539
0.0491022
0.058298
0.0568576
0.058713
0.0409278
0.039778
0.0389497
0.0383042
0.0382833
0.0390208
0.0433239
0.0412312
0.0450505
0.0472356
0.0513927
0.0478696
0.0423744
0.0414287
0.0469591
0.0485913
0.0608456
0.0549377
0.0557105
0.0474714
0.0436479
0.041905
0.0395607
0.0383103
0.0385501
0.0425289
0.0415964
0.0412217
0.0421118
0.0478733
0.0498851
0.0423087
0.0430308
0.0468619
0.0546928
0.0856947
0.0686349
0.0470969
0.0516915
0.0652363
0.06792
0.0555993
0.0506648
0.0394648
0.0390221
0.0381012
0.0402083
0.0421187
0.0477936
0.0415574
0.0410825
0.0439852
0.0556084
0.0495197
0.0578733
0.0652264
0.0547773
0.0569468
0.0569571
0.0388543
0.0388796
0.0385082
0.0383388
0.03897
0.0411302
0.04235
0.0401202
0.0429492
0.0493569
0.0503958
0.0437752
0.0408066
0.0412559
0.0469695
0.0563748
0.0394415
0.0386523
0.0380287
0.0379362
0.0381054
0.0404034
0.0399197
0.0401187
0.0410833
0.0472879
0.0476264
0.044662
0.0485794
0.062259
0.0540213
0.0541427
0.0457961
0.0413689
0.0402348
0.0384688
0.0385635
0.0415319
0.0408957
0.0419861
0.0432627
0.0445897
0.0490473
0.0448521
0.0417198
0.0420121
0.0486196
0.179707
0.0639558
0.0699145
0.0590436
0.0514802
0.0479579
0.042539
0.0385051
0.0381088
0.038084
0.0377878
0.038301
0.0387727
0.0393962
0.0411767
0.0395865
0.0394375
0.0396719
0.0403139
0.047479
0.0404243
0.039859
0.0400605
0.0405738
0.0570601
0.0754308
0.0491319
0.0517927
0.0385935
0.0379486
0.0377487
0.0376773
0.0380572
0.0401219
0.0396794
0.0393833
0.0451753
0.0478028
0.0424072
0.0445434
0.0887669
0.235802
0.0937598
0.055261
0.0512687
0.0576304
0.0537492
0.0517623
0.0433555
0.0399226
0.03907
0.0378722
0.0377005
0.037804
0.0384923
0.0387259
0.0404979
0.0390594
0.0400632
0.0410299
0.0470595
0.0450273
0.0429757
0.0408747
0.050434
0.0704344
0.0485948
0.0575531
0.0706468
0.0643113
0.0567177
0.047365
0.0381576
0.0376182
0.0375388
0.0375628
0.0379079
0.0382679
0.0390825
0.0397918
0.039234
0.0391151
0.0388992
0.038916
0.042326
0.0405974
0.0396529
0.0390949
0.0396023
0.050197
0.0552061
0.0528507
0.0483062
0.0406624
0.0385225
0.0375073
0.0373797
0.037404
0.0376614
0.0384948
0.0385962
0.0396277
0.0393744
0.0391377
0.0389563
0.0389264
0.04333
0.0460449
0.108902
0.0518008
0.0711259
0.0614249
0.0425876
0.0389107
0.0374772
0.0371573
0.0372914
0.0373747
0.0381052
0.0384568
0.0385154
0.0390072
0.0390373
0.0388619
0.0386848
0.0390127
0.0405165
0.0431332
0.0442716
0.0445383
0.0432291
0.0389173
0.0402034
0.0591017
0.0485725
0.0440174
0.0371747
0.0371767
0.0374682
0.0384513
0.0391033
0.0392432
0.0386147
0.0393309
0.0414103
0.041168
0.0400037
0.0387719
0.04211
0.0584283
0.0596275
0.0573898
0.0459875
0.0400953
0.0387685
0.0373192
0.0368614
0.036889
0.0371769
0.0379282
0.0382966
0.0384011
0.0386788
0.0386997
0.0388059
0.0388052
0.0384012
0.038552
0.039185
0.0462161
0.0525963
0.0527547
0.0495656
0.0374621
0.036871
0.0368284
0.0369131
0.0375232
0.0381397
0.0380287
0.0383383
0.0384968