# vtk DataFile Version 1.0
Unstructured Grid Example
ASCII

DATASET UNSTRUCTURED_GRID
POINTS 3240 float
109 188 0
152 176 0
206 190 0
226 221 0
180 225 0
146 265 0
309 305 0
315 321 0
264 304 0
317 214 0
343 68 0
355 117 0
180 133 0
167 215 0
200 214 0
231 218 0
175 232 0
221 260 0
171 223 0
129 246 0
115 251 0
111 264 0
121 260 0
129 283 0
145 293 0
177 297 0
215 327 0
198 332 0
229 295 0
249 284 0
201 274 0
266 272 0
269 293 0
261 301 0
260 320 0
343 400 0
297 312 0
294 311 0
303 290 0
285 286 0
313 229 0
301 266 0
301 223 0
290 204 0
264 261 0
254 194 0
265 188 0
284 152 0
344 199 0
292 200 0
86 63 0
7 1 0
0 157 0
119 175 0
158 175 0
153 169 0
141 143 0
154 1 0
123 47 0
159 156 0
166 148 0
167 1 0
176 155 0
203 158 0
205 169 0
208 168 0
196 162 0
189 171 0
178 169 0
195 200 0
196 194 0
203 190 0
209 185 0
203 217 0
219 213 0
203 203 0
198 210 0
194 215 0
188 202 0
192 205 0
174 196 0
180 190 0
188 178 0
55 191 0
150 183 0
172 194 0
164 199 0
150 217 0
106 226 0
130 226 0
161 231 0
181 240 0
178 247 0
179 272 0
146 270 0
110 258 0
105 260 0
114 284 0
138 283 0
155 285 0
162 302 0
144 320 0
181 338 0
185 314 0
188 293 0
170 282 0
165 291 0
192 275 0
196 277 0
215 278 0
207 330 0
227 335 0
215 346 0
215 334 0
217 312 0
222 283 0
220 265 0
228 274 0
207 261 0
192 269 0
189 268 0
216 259 0
215 241 0
218 253 0
219 259 0
222 253 0
238 243 0
238 278 0
256 259 0
271 269 0
267 285 0
273 292 0
252 285 0
250 304 0
248 296 0
236 321 0
228 332 0
235 339 0
243 362 0
240 355 0
264 324 0
249 326 0
243 320 0
259 316 0
268 305 0
275 314 0
292 308 0
275 321 0
275 346 0
369 353 0
294 315 0
313 306 0
300 293 0
332 290 0
349 263 0
329 269 0
310 265 0
282 279 0
303 274 0
279 257 0
309 248 0
328 238 0
356 240 0
341 247 0
349 232 0
343 224 0
340 211 0
350 201 0
320 201 0
333 213 0
320 225 0
319 231 0
321 233 0
285 235 0
313 233 0
261 226 0
254 234 0
231 225 0
259 203 0
242 210 0
278 208 0
289 216 0
291 220 0
260 194 0
242 200 0
238 201 0
228 196 0
255 172 0
258 191 0
260 174 0
262 150 0
270 12 0
286 166 0
280 1 0
284 176 0
294 187 0
272 194 0
313 199 0
317 201 0
298 197 0
305 193 0
372 155 0
34 1 0
0 5 0
69 1 0
131 32 0
110 49 0
123 33 0
106 55 0
94 69 0
92 57 0
85 73 0
0 92 0
112 156 0
111 171 0
84 176 0
130 144 0
137 147 0
125 143 0
134 141 0
113 75 0
151 153 0
146 162 0
152 164 0
148 166 0
162 175 0
166 180 0
165 157 0
158 153 0
152 150 0
165 142 0
167 121 0
163 146 0
159 109 0
139 132 0
139 30 0
137 43 0
151 11 0
154 6 0
161 82 0
171 144 0
171 154 0
169 159 0
170 162 0
178 163 0
175 163 0
182 161 0
188 159 0
189 156 0
201 57 0
196 14 0
202 7 0
203 1 0
204 33 0
197 154 0
220 160 0
196 145 0
193 160 0
192 148 0
195 173 0
201 170 0
204 164 0
211 165 0
212 175 0
214 181 0
209 173 0
204 175 0
196 181 0
192 180 0
184 181 0
189 176 0
190 174 0
188 163 0
180 165 0
181 170 0
180 176 0
176 178 0
170 181 0
194 182 0
195 185 0
191 187 0
191 191 0
199 198 0
201 192 0
198 187 0
198 182 0
197 184 0
204 193 0
202 186 0
215 193 0
218 183 0
225 188 0
216 199 0
225 193 0
213 195 0
207 195 0
204 196 0
213 204 0
211 200 0
215 202 0
223 199 0
221 216 0
222 206 0
217 220 0
216 211 0
212 222 0
210 216 0
210 220 0
206 212 0
205 206 0
211 203 0
191 203 0
201 201 0
201 209 0
193 212 0
194 218 0
178 220 0
186 207 0
178 216 0
174 220 0
160 199 0
159 203 0
169 201 0
187 200 0
188 205 0
186 194 0
181 197 0
183 188 0
186 186 0
177 183 0
166 188 0
176 186 0
155 191 0
162 192 0
170 196 0
139 196 0
136 201 0
152 188 0
154 184 0
103 192 0
104 185 0
121 200 0
113 202 0
117 205 0
124 207 0
113 213 0
129 208 0
136 206 0
149 212 0
119 222 0
138 217 0
113 221 0
100 221 0
95 215 0
114 232 0
112 239 0
0 240 0
114 242 0
123 240 0
134 241 0
122 234 0
134 227 0
118 226 0
146 236 0
140 224 0
161 235 0
166 234 0
170 234 0
168 242 0
174 241 0
166 238 0
146 241 0
138 242 0
148 254 0
152 255 0
159 245 0
165 249 0
157 262 0
166 264 0
153 267 0
151 260 0
149 264 0
129 267 0
137 268 0
142 264 0
141 252 0
131 249 0
125 243 0
101 248 0
123 249 0
117 258 0
124 260 0
128 275 0
137 277 0
149 271 0
149 268 0
148 279 0
133 288 0
133 293 0
129 287 0
130 280 0
123 297 0
0 325 0
0 377 0
102 400 0
55 400 0
144 308 0
151 308 0
149 304 0
127 302 0
146 296 0
159 322 0
159 317 0
161 332 0
164 338 0
169 341 0
173 329 0
174 326 0
171 325 0
165 316 0
162 315 0
165 310 0
160 313 0
155 315 0
154 312 0
156 271 0
156 294 0
159 280 0
171 291 0
173 287 0
176 275 0
181 288 0
186 281 0
188 275 0
186 308 0
196 293 0
184 303 0
176 293 0
175 304 0
192 308 0
180 310 0
176 319 0
191 341 0
175 346 0
199 370 0
199 348 0
197 340 0
195 335 0
193 338 0
199 320 0
204 324 0
200 353 0
212 359 0
225 339 0
219 347 0
224 335 0
220 327 0
222 313 0
223 296 0
215 302 0
214 296 0
204 301 0
204 296 0
204 275 0
200 289 0
211 284 0
219 286 0
222 286 0
218 268 0
224 267 0
217 263 0
222 257 0
205 258 0
215 253 0
201 259 0
210 269 0
207 274 0
196 270 0
197 264 0
191 264 0
188 262 0
178 266 0
175 254 0
178 255 0
192 255 0
195 258 0
198 254 0
196 235 0
193 229 0
185 246 0
183 252 0
184 226 0
176 224 0
193 222 0
200 227 0
205 224 0
211 226 0
206 227 0
220 234 0
207 248 0
208 251 0
224 247 0
221 248 0
223 232 0
223 225 0
222 222 0
229 234 0
230 246 0
225 253 0
225 259 0
231 260 0
235 255 0
232 249 0
234 240 0
233 246 0
246 238 0
245 241 0
247 246 0
255 237 0
260 250 0
261 257 0
258 256 0
253 260 0
253 257 0
247 253 0
246 270 0
248 263 0
257 271 0
260 271 0
262 278 0
262 283 0
259 286 0
259 282 0
242 282 0
241 286 0
237 286 0
242 279 0
242 276 0
240 273 0
235 261 0
227 265 0
235 279 0
229 281 0
236 282 0
228 291 0
230 298 0
236 293 0
236 297 0
240 305 0
241 308 0
234 300 0
229 304 0
227 309 0
231 328 0
226 318 0
231 331 0
225 356 0
230 356 0
236 336 0
235 343 0
237 330 0
234 329 0
241 322 0
242 331 0
245 322 0
242 337 0
248 347 0
258 349 0
256 355 0
250 335 0
262 333 0
253 320 0
258 309 0
263 311 0
255 305 0
251 307 0
250 314 0
255 301 0
248 302 0
257 296 0
260 291 0
264 293 0
286 290 0
278 291 0
288 288 0
294 294 0
291 312 0
285 310 0
280 299 0
268 298 0
271 313 0
275 325 0
267 325 0
276 336 0
273 340 0
272 360 0
278 327 0
292 336 0
285 326 0
289 316 0
280 315 0
298 321 0
303 328 0
299 341 0
294 345 0
321 322 0
400 346 0
303 322 0
320 314 0
308 313 0
371 305 0
352 299 0
336 298 0
300 301 0
295 297 0
309 295 0
303 287 0
309 291 0
313 290 0
315 296 0
340 284 0
400 286 0
331 283 0
336 278 0
305 271 0
304 264 0
313 278 0
311 280 0
298 283 0
282 285 0
275 286 0
270 287 0
265 284 0
269 282 0
268 279 0
264 277 0
278 269 0
281 272 0
289 282 0
292 255 0
303 256 0
268 257 0
267 261 0
264 245 0
270 234 0
275 240 0
290 239 0
302 234 0
319 250 0
319 239 0
309 255 0
310 261 0
312 263 0
333 258 0
332 264 0
340 258 0
333 240 0
340 238 0
316 233 0
320 228 0
314 226 0
307 227 0
311 225 0
309 223 0
317 225 0
321 214 0
325 215 0
330 209 0
348 208 0
329 205 0
326 205 0
339 205 0
319 203 0
307 199 0
316 207 0
314 208 0
324 212 0
297 209 0
300 201 0
301 198 0
303 196 0
282 199 0
293 197 0
296 199 0
279 205 0
292 209 0
281 218 0
278 212 0
281 211 0
284 218 0
294 212 0
299 229 0
306 232 0
298 218 0
298 232 0
292 223 0
267 227 0
276 220 0
273 219 0
278 215 0
264 222 0
262 216 0
264 227 0
255 229 0
259 233 0
246 230 0
237 227 0
236 230 0
228 228 0
235 224 0
229 220 0
227 223 0
244 220 0
249 222 0
251 218 0
229 214 0
246 210 0
228 212 0
225 206 0
239 198 0
229 199 0
242 197 0
243 202 0
244 205 0
246 199 0
248 203 0
248 206 0
249 213 0
252 213 0
262 211 0
265 212 0
275 211 0
265 206 0
261 205 0
263 196 0
264 186 0
263 184 0
262 182 0
253 184 0
256 181 0
257 185 0
260 189 0
261 191 0
241 192 0
251 194 0
237 192 0
234 194 0
228 193 0
239 190 0
243 185 0
247 183 0
247 188 0
252 186 0
248 180 0
246 164 0
246 176 0
234 169 0
235 163 0
235 18 0
241 152 0
248 160 0
254 161 0
255 176 0
254 1 0
259 177 0
254 179 0
259 180 0
264 181 0
267 177 0
264 165 0
262 161 0
265 154 0
275 5 0
268 149 0
275 148 0
287 21 0
288 159 0
295 172 0
283 171 0
280 168 0
269 160 0
273 186 0
276 174 0
277 193 0
281 194 0
279 195 0
290 194 0
282 196 0
284 192 0
283 190 0
285 189 0
303 191 0
297 188 0
308 192 0
319 192 0
328 191 0
322 191 0
324 189 0
330 187 0
321 188 0
400 187 0
400 158 0
309 121 0
301 173 0
297 185 0
355 71 0
317 1 0
379 88 0
386 97 0
400 42 0
20 1 0
11 14 0
53 40 0
0 40 0
97 40 0
103 46 0
105 39 0
91 31 0
98 1 0
125 1 0
109 21 0
127 25 0
131 14 0
131 47 0
136 36 0
131 39 0
125 41 0
116 41 0
117 50 0
117 58 0
124 54 0
133 58 0
111 67 0
124 68 0
109 59 0
109 94 0
104 69 0
102 79 0
104 63 0
99 62 0
102 52 0
102 57 0
92 48 0
98 50 0
96 55 0
67 83 0
96 59 0
114 130 0
75 116 0
114 140 0
115 115 0
120 146 0
120 154 0
114 150 0
105 144 0
96 156 0
111 162 0
115 166 0
101 171 0
113 176 0
115 180 0
117 170 0
120 167 0
119 163 0
116 160 0
120 158 0
123 161 0
126 163 0
125 167 0
122 171 0
126 179 0
134 173 0
129 170 0
130 164 0
130 159 0
133 154 0
134 158 0
129 155 0
127 152 0
125 156 0
125 148 0
127 128 0
132 148 0
135 150 0
136 95 0
140 155 0
136 155 0
145 156 0
148 155 0
150 157 0
149 160 0
147 158 0
144 159 0
139 158 0
136 161 0
140 161 0
142 165 0
137 167 0
141 177 0
146 175 0
148 179 0
150 172 0
144 171 0
149 163 0
156 167 0
156 171 0
158 179 0
154 180 0
160 172 0
161 178 0
163 171 0
163 168 0
159 167 0
160 164 0
162 162 0
158 162 0
155 164 0
153 161 0
155 157 0
154 154 0
157 159 0
160 159 0
162 157 0
161 154 0
161 151 0
159 149 0
163 149 0
159 141 0
153 138 0
153 145 0
157 145 0
156 150 0
149 151 0
146 153 0
143 154 0
141 151 0
138 152 0
144 149 0
146 144 0
147 148 0
147 132 0
150 147 0
143 70 0
144 46 0
137 49 0
137 24 0
139 18 0
140 6 0
144 14 0
144 1 0
146 8 0
151 26 0
149 1 0
150 37 0
154 55 0
147 119 0
161 39 0
157 130 0
161 21 0
158 13 0
161 6 0
166 13 0
166 136 0
171 7 0
173 132 0
175 145 0
174 139 0
169 148 0
167 145 0
169 140 0
164 153 0
166 151 0
168 154 0
165 160 0
167 162 0
173 156 0
172 159 0
174 151 0
170 151 0
174 148 0
180 158 0
177 150 0
175 158 0
179 161 0
185 159 0
182 156 0
183 153 0
181 150 0
180 153 0
184 148 0
183 144 0
179 147 0
178 140 0
177 125 0
175 1 0
175 14 0
178 32 0
181 8 0
180 67 0
185 1 0
186 15 0
185 138 0
186 151 0
200 147 0
188 145 0
192 142 0
[...]
CELL_DATA 6414
COLOR_SCALARS ColorSpace 1
0.260131
0.29281
0.224837
0.337255
0.244444
0.228758
0.287582
0.224837
0.23268
0.275817
0.243137
0.205229
0.482353
0.312418
0.231373
0.296732
0.351634
0.312418
0.326797
0.56732
0.111111
0.122876
0.511111
0.415686
0.295425
0.218301
0.366013
0.34902
0.375163
0.29281
0.277124
0.223529
0.330719
0.337255
0.261438
0.243137
0.271895
0.347712
0.337255
0.214379
0.342484
0.0771242
0.282353
0.222222
0.354248
0.218301
0.247059
0.413072
0.312418
0.317647
0.277124
0.279739
0.27451
0.368627
0.236601
0.258824
0.29281
0.270588
0.294118
0.28366
0.298039
0.30719
0.278431
0.218301
0.262745
0.267974
0.273203
0.24183
0.311111
0.305882
0.467974
0.286275
0.364706
0.254902
0.287582
0.322876
0.243137
0.290196
0.290196
0.294118
0.224837
0.278431
0.295425
0.338562
0.286275
0.383007
0.321569
0.207843
0.30719
0.269281
0.330719
0.326797
0.286275
0.245752
0.300654
0.244444
0.335948
0.355556
0.075817
0.258824
0.075817
0.338562
0.346405
0.248366
0.220915
0.352941
0.231373
0.369935
0.332026
0.439216
0.352941
0.267974
0.133333
0.224837
0.364706
0.377778
0.333333
0.321569
0.381699
0.328105
0.275817
0.39085
0.352941
0.324183
0.339869
0.379085
0.258824
0.27451
0.398693
0.275817
0.317647
0.335948
0.265359
0.329412
0.265359
0.375163
0.296732
0.392157
0.32549
0.320261
0.372549
0.312418
0.343791
0.362092
0.388235
0.324183
0.322876
0.328105
0.291503
0.296732
0.303268
0.303268
0.300654
0.228758
0.273203
0.315033
0.258824
0.368627
0.308497
0.315033
0.318954
0.342484
0.186928
0.231373
0.267974
0.301961
0.281046
0.291503
0.265359
0.25098
0.265359
0.34902
0.218301
0.282353
0.252288
0.155556
0.262745
0.243137
0.351634
0.194771
0.239216
0.279739
0.284967
0.267974
0.328105
0.29281
0.320261
0.320261
0.146405
0.368627
0.218301
0.264052
0.216993
0.231373
0.210458
0.529412
0.286275
0.281046
0.0732026
0.141176
0.203922
0.226144
0.247059
0.194771
0.248366
0.311111
0.300654
0.240523
0.252288
0.265359
0.252288
0.236601
0.299346
0.326797
0.247059
0.301961
0.397386
0.315033
0.318954
0.542484
0.201307
0.384314
0.315033
0.278431
0.249673
0.267974
0.281046
0.258824
0.332026
0.300654
0.294118
0.32549
0.322876
0.260131
0.275817
0.286275
0.286275
0.233987
0.376471
0.260131
0.431373
0.258824
0.301961
0.275817
0.249673
0.300654
0.254902
0.266667
0.326797
0.257516
0.237908
0.253595
0.281046
0.342484
0.360784
0.31634
0.288889
0.279739
0.301961
0.226144
0.371242
0.261438
0.287582
0.27451
0.295425
0.281046
0.253595
0.311111
0.287582
0.248366
0.31634
0.291503
0.0640523
0.206536
0.522876
0.312418
0.256209
0.271895
0.266667
0.248366
0.20915
0.256209
0.25098
0.287582
0.333333
0.296732
0.284967
0.321569
0.322876
0.326797
0.396078
0.431373
0.345098
0.132026
0.104575
0.30719
0.328105
0.471895
0.337255
0.335948
0.315033
0.428758
0.282353
0.304575
0.245752
0.475817
0.538562
0.23268
0.329412
0.311111
0.219608
0.275817
0.321569
0.267974
0.224837
0.270588
0.294118
0.426144
0.337255
0.237908
0.278431
0.571242
0.52549
0.618301
0.261438
0.324183
0.586928
0.594771
0.291503
0.47451
0.645752
0.29281
0.23268
0.328105
0.299346
0.430065
0.308497
0.244444
0.260131
0.256209
0.267974
0.308497
0.243137
0.312418
0.282353
0.321569
0.171242
0.303268
0.214379
0.24183
0.254902
0.335948
0.271895
0.398693
0.273203
0.321569
0.308497
0.32549
0.252288
0.228758
0.362092
0.295425
0.386928
0.30719
0.267974
0.45098
0.420915
0.305882
0.304575
0.301961
0.305882
0.288889
0.343791
0.320261
0.383007
0.362092
0.256209
0.177778
0.290196
0.43268
0.15817
0.179085
0.32549
0.363399
0.430065
0.312418
0.4
0.359477
0.273203
0.261438
0.286275
0.299346
0.334641
0.372549
0.443137
0.401307
0.414379
0.124183
0.346405
0.19085
0.113725
0.726797
0.299346
0.257516
0.214379
0.231373
0.305882
0.164706
0.267974
0.300654
0.213072
0.235294
0.192157
0.0718954
0.0771242
0.171242
0.312418
0.220915
0.338562
0.075817
0.406536
0.312418
0.243137
0.312418
0.320261
0.380392
0.330719
0.339869
0.173856
0.273203
0.393464
0.290196
0.290196
0.351634
0.303268
0.308497
0.301961
0.222222
0.328105
0.270588
0.324183
0.313725
0.321569
0.30719
0.32549
0.332026
0.384314
0.262745
0.326797
0.363399
0.312418
0.343791
0.332026
0.328105
0.423529
0.385621
0.377778
0.423529
0.694118
0.0862745
0.439216
0.300654
0.239216
0.322876
0.121569
0.517647
0.467974
0.334641
0.366013
0.337255
0.334641
0.275817
0.355556
0.25098
0.265359
0.372549
0.299346
0.4
0.341176
0.338562
0.351634
0.350327
0.235294
0.328105
0.264052
0.55817
0.430065
0.369935
0.597386
0.670588
0.193464
0.545098
0.235294
0.631373
0.415686
0.206536
0.262745
0.466667
0.247059
0.512418
0.363399
0.231373
0.312418
0.430065
0.546405
0.287582
0.413072
0.36732
0.247059
0.328105
0.304575
0.320261
0.368627
0.245752
0.312418
0.296732
0.216993
0.312418
0.326797
0.355556
0.265359
0.371242
0.355556
0.350327
0.366013
0.329412
0.324183
0.300654
0.347712
0.299346
0.346405
0.287582
0.296732
0.335948
0.389542
0.411765
0.324183
0.335948
0.403922
0.305882
0.335948
0.32549
0.286275
0.355556
0.30719
0.375163
0.351634
0.308497
0.347712
0.436601
0.31634
0.266667
0.30719
0.379085
0.389542
0.34902
0.354248
0.398693
0.419608
0.377778
0.356863
0.312418
0.372549
0.287582
0.420915
0.385621
0.284967
0.248366
0.407843
0.364706
0.320261
0.371242
0.294118
0.318954
0.372549
0.363399
0.315033
0.346405
0.313725
0.39085
0.363399
0.334641
0.4
0.360784
0.322876
0.303268
0.392157
0.379085
0.301961
0.356863
0.23268
0.39085
0.392157
0.377778
0.345098
0.401307
0.309804
0.309804
0.322876
0.410458
0.317647
0.320261
0.339869
0.335948
0.359477
0.334641
0.356863
0.330719
0.371242
0.286275
0.295425
0.240523
0.303268
0.324183
0.291503
0.201307
0.278431
0.235294
0.267974
0.184314
0.24183
0.262745
0.262745
0.377778
0.175163
0.284967
0.216993
0.28366
0.231373
0.224837
0.240523
0.266667
0.281046
0.304575
0.275817
0.264052
0.36732
0.377778
0.311111
0.298039
0.308497
0.363399
0.398693
0.388235
0.422222
0.329412
0.334641
0.288889
0.290196
0.303268
0.286275
0.240523
0.290196
0.261438
0.298039
0.254902
0.269281
0.258824
0.257516
0.257516
0.334641
0.267974
0.230065
0.265359
0.282353
0.287582
0.142484
0.381699
0.169935
0.233987
0.28366
0.351634
0.534641
0.355556
0.254902
0.288889
0.223529
0.28366
0.402614
0.304575
0.230065
0.267974
0.214379
0.245752
0.300654
0.270588
0.334641
0.24183
0.264052
0.308497
0.43268
0.470588
0.488889
0.330719
0.52549
0.243137
0.45098
0.315033
0.335948
0.0732026
0.291503
0.224837
0.25098
0.210458
0.243137
0.25098
0.271895
0.354248
0.220915
0.277124
0.230065
0.231373
0.189542
0.282353
0.288889
0.222222
0.236601
0.240523
0.211765
0.281046
0.252288
0.243137
0.226144
0.183007
0.265359
0.224837
0.19085
0.216993
0.202614
0.235294
0.279739
0.215686
0.24183
0.300654
0.262745
0.244444
0.19085
0.243137
0.265359
0.301961
0.233987
0.257516
0.273203
0.288889
0.243137
0.248366
0.282353
0.243137
0.224837
0.230065
0.295425
0.36732
0.294118
0.24183
0.305882
0.213072
0.277124
0.239216
0.261438
0.258824
0.236601
0.211765
0.213072
0.477124
0.430065
0.291503
0.350327
0.377778
0.223529
0.281046
0.40915
0.282353
0.346405
0.266667
0.244444
0.231373
0.237908
0.214379
0.288889
0.270588
0.362092
0.35817
0.356863
0.346405
0.34902
0.366013
0.31634
0.328105
0.230065
0.0627451
0.262745
0.0679739
0.0745098
0.0745098
0.312418
0.301961
0.271895
0.277124
0.266667
0.261438
0.295425
0.227451
0.335948
0.262745
0.320261
0.299346
0.304575
0.24183
0.414379
0.202614
0.321569
0.215686
0.500654
0.572549
0.368627
0.433987
0.362092
0.252288
0.312418
0.267974
0.201307
0.334641
0.269281
0.332026
0.286275
0.287582
0.296732
0.286275
0.413072
0.440523
0.278431
0.364706
0.265359
0.322876
0.273203
0.324183
0.256209
0.264052
0.25098
0.282353
0.223529
0.197386
0.211765
0.337255
0.231373
0.271895
0.244444
0.304575
0.260131
0.277124
0.267974
0.277124
0.245752
0.29281
0.245752
0.257516
0.213072
0.278431
0.269281
0.24183
0.211765
0.271895
0.207843
0.356863
0.28366
0.326797
0.465359
0.258824
0.379085
0.518954
0.294118
0.388235
0.231373
0.303268
0.318954
0.478431
0.343791
0.4
0.521569
0.321569
0.245752
0.231373
0.257516
0.218301
0.538562
0.371242
0.346405
0.271895
0.439216
0.437908
0.317647
0.30719
0.301961
0.261438
0.237908
0.25098
0.235294
0.24183
0.260131
0.239216
0.245752
0.321569
0.257516
0.248366
0.218301
0.266667
0.20915
0.271895
0.296732
0.375163
0.257516
0.273203
0.240523
0.273203
0.270588
0.249673
0.291503
0.31634
0.262745
0.28366
0.34902
0.309804
0.300654
0.273203
0.317647
0.332026
0.223529
0.318954
0.304575
0.320261
0.290196
0.258824
0.313725
0.372549
0.28366
0.330719
0.30719
0.32549
0.235294
0.231373
0.267974
0.230065
0.288889
0.299346
0.249673
0.286275
0.257516
0.261438
0.240523
0.230065
0.338562
0.25098
0.328105
0.269281
0.356863
0.206536
0.329412
0.265359
0.32549
0.309804
0.267974
0.218301
0.216993
0.284967
0.189542
0.186928
0.192157
0.253595
0.168627
0.23268
0.313725
0.308497
0.286275
0.303268
0.317647
0.278431
0.373856
0.215686
0.215686
0.315033
0.290196
0.269281
0.298039
0.254902
0.284967
0.247059
0.282353
0.235294
0.262745
0.299346
0.24183
0.373856
0.330719
0.313725
0.309804
0.320261
0.290196
0.286275
0.20915
0.318954
0.269281
0.284967
0.20915
0.290196
0.265359
0.271895
0.240523
0.211765
0.315033
0.321569
0.265359
0.256209
0.25098
0.320261
0.264052
0.252288
0.339869
0.312418
0.249673
0.247059
0.265359
0.29281
0.31634
0.315033
0.298039
0.235294
0.290196
0.176471
0.220915
0.267974
0.215686
0.360784
0.290196
0.301961
0.23268
0.258824
0.301961
0.313725
0.262745
0.308497
0.287582
0.330719
0.298039
0.296732
0.236601
0.29281
0.284967
0.262745
0.265359
0.301961
0.299346
0.236601
0.304575
0.253595
0.318954
0.260131
0.294118
0.281046
0.267974
0.266667
0.231373
0.295425
0.266667
0.256209
0.240523
0.270588
0.315033
0.284967
0.248366
0.247059
0.281046
0.27451
0.287582
0.253595
0.312418
0.220915
0.269281
0.257516
0.260131
0.257516
0.231373
0.243137
0.256209
0.24183
0.299346
0.269281
0.245752
0.239216
0.239216
0.236601
0.205229
0.277124
0.261438
0.39085
0.513725
0.407843
0.547712
0.249673
0.267974
0.317647
0.222222
0.277124
0.257516
0.220915
0.266667
0.281046
0.271895
0.247059
0.286275
0.236601
0.254902
0.366013
0.30719
0.515033
0.618301
0.392157
0.35817
0.308497
0.392157
0.298039
0.512418
0.28366
0.449673
0.282353
0.247059
0.304575
0.231373
0.30719
0.326797
0.326797
0.291503
0.286275
0.260131
0.273203
0.254902
0.269281
0.290196
0.265359
0.284967
0.245752
0.273203
0.248366
0.239216
0.286275
0.258824
0.247059
0.345098
0.277124
0.277124
0.233987
0.346405
0.279739
0.335948
0.31634
0.313725
0.328105
0.308497
0.385621
0.267974
0.239216
0.328105
0.309804
0.28366
0.253595
0.262745
0.386928
0.207843
0.326797
0.398693
0.403922
0.460131
0.343791
0.0745098
0.326797
0.368627
0.48366
0.337255
0.371242
0.334641
0.244444
0.245752
0.290196
0.568627
0.32549
0.508497
0.580392
0.45098
0.291503
0.273203
0.19085
0.363399
0.537255
0.111111
0.096732
0.571242
0.414379
0.490196
0.401307
0.419608
0.547712
0.108497
0.176471
0.245752
0.132026
0.445752
0.198693
0.27451
0.253595
0.270588
0.262745
0.35817
0.322876
0.298039
0.262745
0.315033
0.252288
0.277124
0.532026
0.342484
0.555556
0.537255
0.236601
0.109804
0.464052
0.579085
0.545098
0.562092
0.329412
0.223529
0.300654
0.194771
0.303268
0.362092
0.296732
0.266667
0.269281
0.279739
0.339869
0.328105
0.254902
0.288889
0.291503
0.301961
0.298039
0.341176
0.270588
0.311111
0.291503
0.300654
0.291503
0.28366
0.288889
0.205229
0.312418
0.219608
0.222222
0.282353
0.198693
0.317647
0.279739
0.284967
0.252288
0.152941
0.257516
0.254902
0.303268
0.215686
0.264052
0.329412
0.164706
0.28366
0.273203
0.257516
0.317647
0.254902
0.356863
0.338562
0.243137
0.309804
0.315033
0.271895
0.30719
0.384314
0.392157
0.343791
0.580392
0.359477
0.473203
0.354248
0.564706
0.423529
0.329412
0.509804
0.464052
0.304575
0.31634
0.277124
0.301961
0.252288
0.249673
0.279739
0.301961
0.264052
0.27451
0.313725
0.261438
0.243137
0.25098
0.188235
0.305882
0.333333
0.368627
0.24183
0.309804
0.30719
0.210458
0.317647
0.346405
0.301961
0.288889
0.271895
0.326797
0.411765
0.380392
0.352941
0.333333
0.368627
0.25098
0.403922
0.247059
0.366013
0.313725
0.281046
0.32549
0.318954
0.354248
0.31634
0.389542
0.36732
0.394771
0.334641
0.260131
0.304575
0.346405
0.328105
0.333333
0.32549
0.333333
0.282353
0.273203
0.312418
0.311111
0.284967
0.290196
0.284967
0.300654
0.28366
0.304575
0.216993
0.279739
0.298039
0.296732
0.286275
0.29281
0.257516
0.253595
0.2
0.298039
0.25098
0.245752
0.253595
0.355556
0.356863
0.32549
0.345098
0.352941
0.312418
0.312418
0.312418
0.32549
0.312418
0.332026
0.318954
0.286275
0.294118
0.247059
0.309804
0.252288
0.205229
0.347712
0.220915
0.320261
0.364706
0.227451
0.277124
0.30719
0.290196
0.354248
0.350327
0.303268
0.294118
0.334641
0.345098
0.24183
0.317647
0.273203
0.339869
0.31634
0.420915
0.334641
0.406536
0.317647
0.324183
0.305882
0.359477
0.410458
0.350327
0.384314
0.279739
0.392157
0.388235
0.362092
0.445752
0.356863
0.363399
0.32549
0.343791
0.368627
0.312418
0.437908
0.318954
0.332026
0.401307
0.32549
0.34902
0.260131
0.392157
0.321569
0.355556
0.330719
0.397386
0.34902
0.342484
0.311111
0.363399
0.376471
0.287582
0.39085
0.372549
0.398693
0.341176
0.312418
0.267974
0.273203
0.342484
0.4
0.347712
0.332026
0.333333
0.277124
0.301961
0.28366
0.339869
0.34902
0.383007
0.346405
0.288889
0.363399
0.383007
0.376471
0.247059
0.377778
0.343791
0.256209
0.347712
0.273203
0.300654
0.230065
0.27451
0.278431
0.256209
0.366013
0.332026
0.335948
0.320261
0.294118
0.335948
0.248366
0.368627
0.28366
0.318954
0.196078
0.277124
0.253595
0.211765
0.6
0.371242
0.253595
0.20915
0.266667
0.352941
0.343791
0.341176
0.373856
0.305882
0.461438
0.428758
0.295425
0.309804
0.261438
0.4
0.315033
0.345098
0.419608
0.317647
0.379085
0.328105
0.278431
0.301961
0.381699
0.40915
0.389542
0.278431
0.152941
0.15817
0.309804
0.25098
0.339869
0.488889
0.194771
0.430065
0.35817
0.295425
0.298039
0.298039
0.456209
0.32549
0.377778
0.29281
0.381699
0.305882
0.313725
0.301961
0.339869
0.402614
0.342484
0.326797
0.304575
0.347712
0.308497
0.347712
0.341176
0.36732
0.394771
0.356863
0.332026
0.305882
0.342484
0.32549
0.322876
0.330719
0.352941
0.342484
0.328105
0.500654
0.31634
0.376471
0.286275
0.352941
0.368627
0.329412
0.318954
0.333333
0.352941
0.355556
0.339869
0.34902
0.342484
0.11634
0.253595
0.373856
0.40915
0.444444
0.341176
0.303268
0.464052
0.895425
0.220915
0.150327
0.267974
0.151634
0.184314
0.113725
0.0718954
0.0666667
0.0666667
0.075817
0.069281
0.134641
0.075817
0.159477
0.075817
0.198693
0.189542
0.258824
0.0718954
0.216993
0.270588
0.0705882
0.177778
0.134641
0.139869
0.198693
0.12549
0.193464
0.109804
0.299346
0.805229
0.305882
0.299346
0.288889
0.249673
0.160784
0.239216
0.2
0.16732
0.261438
0.203922
0.237908
0.380392
0.277124
0.405229
0.398693
0.295425
0.360784
0.355556
0.416993
0.481046
0.273203
0.309804
0.475817
0.168627
0.366013
0.419608
0.145098
0.303268
0.347712
0.309804
0.262745
0.275817
0.277124
0.311111
0.315033
0.301961
0.236601
0.262745
0.230065
0.286275
0.31634
0.304575
0.103268
0.075817
0.318954
0.294118
0.193464
0.457516
0.075817
0.0797386
0.25098
0.245752
0.311111
0.392157
0.422222
0.315033
0.4
0.347712
0.427451
0.484967
0.135948
0.222222
0.075817
0.0888889
0.257516
0.237908
0.436601
0.424837
0.0993464
0.181699
0.466667
0.440523
0.39085
0.452288
0.43268
0.260131
0.223529
0.440523
0.427451
0.511111
0.478431
0.534641
0.278431
0.469281
0.311111
0.31634
0.265359
0.269281
0.281046
0.196078
0.339869
0.269281
0.267974
0.257516
0.233987
0.299346
0.214379
0.235294
0.25098
0.201307
0.31634
0.282353
0.286275
0.287582
0.32549
0.271895
0.482353
0.249673
0.320261
0.270588
0.351634
0.260131
0.309804
0.347712
0.452288
0.436601
0.308497
0.322876
0.27451
0.284967
0.478431
0.371242
0.291503
0.333333
0.264052
0.28366
0.333333
0.360784
0.328105
0.282353
0.31634
0.275817
0.317647
0.335948
0.338562
0.31634
0.210458
0.304575
0.267974
0.284967
0.288889
0.220915
0.312418
0.329412
0.312418
0.235294
0.244444
0.261438
0.237908
0.240523
0.215686
0.257516
0.23268
0.223529
0.197386
0.220915
0.237908
0.303268
0.318954
0.330719
0.326797
0.273203
0.243137
0.257516
0.262745
0.266667
0.23268
0.220915
0.269281
0.288889
0.317647
0.239216
0.273203
0.376471
0.261438
0.321569
0.295425
0.337255
0.281046
0.366013
0.303268
0.299346
0.290196
0.29281
0.294118
0.313725
0.305882
0.313725
0.380392
0.333333
0.337255
0.333333
0.368627
0.324183
0.388235
0.317647
0.362092
0.39085
0.328105
0.397386
0.312418
0.322876
0.304575
0.330719
0.330719
0.413072
0.376471
0.396078
0.35817
0.453595
0.321569
0.311111
0.36732
0.320261
0.341176
0.324183
0.309804
0.350327
0.288889
0.321569
0.339869
0.326797
0.354248
0.318954
0.261438
0.267974
0.359477
0.355556
0.360784
0.376471
0.294118
0.318954
0.345098
0.43268
0.333333
0.329412
0.504575
0.304575
0.464052
0.407843
0.415686
0.369935
0.466667
0.296732
0.479739
0.233987
0.228758
0.163399
0.484967
0.262745
0.108497
0.282353
0.154248
0.317647
0.658824
0.134641
0.139869
0.891503
0.402614
0.522876
0.535948
0.43268
0.52549
0.452288
0.742484
0.465359
0.355556
0.532026
0.695425
0.734641
0.130719
0.262745
0.147712
0.580392
0.105882
0.352941
0.362092
0.216993
0.152941
0.286275
0.373856
0.328105
0.312418
0.345098
0.418301
0.313725
0.343791
0.329412
0.334641
0.356863
0.351634
0.335948
0.31634
0.352941
0.339869
0.384314
0.321569
0.279739
0.350327
0.28366
0.298039
0.31634
0.338562
0.330719
0.308497
0.368627
0.356863
0.354248
0.322876
0.355556
0.338562
0.31634
0.379085
0.345098
0.328105
0.330719
0.350327
0.334641
0.321569
0.324183
0.298039
0.338562
0.339869
0.332026
0.334641
0.330719
0.338562
0.337255
0.330719
0.352941
0.411765
0.313725
0.456209
0.309804
0.342484
0.411765
0.490196
0.384314
0.341176
0.101961
0.537255
0.275817
0.926797
0.487582
0.0823529
0.0901961
0.596078
0.176471
0.156863
0.522876
0.25098
0.448366
0.228758
0.360784
0.384314
0.385621
0.384314
0.481046
0.522876
0.0862745
0.177778
0.0849673
0.171242
0.0797386
0.364706
0.619608
0.0888889
0.426144
0.576471
0.538562
0.628758
0.462745
0.635294
0.15817
0.445752
0.345098
0.329412
0.396078
0.398693
0.0849673
0.196078
0.231373
0.0836601
0.392157
0.311111
0.337255
0.458824
0.296732
0.270588
0.214379
0.211765
0.256209
0.345098
0.287582
0.235294
0.341176
0.373856
0.342484
0.356863
0.290196
0.334641
0.256209
0.265359
0.313725
0.354248
0.281046
0.304575
0.337255
0.346405
0.426144
0.308497
0.296732
0.333333
0.341176
0.420915
0.277124
0.294118
0.304575
0.249673
0.351634
0.273203
0.32549
0.359477
0.309804
0.309804
0.305882
0.313725
0.354248
0.377778
0.342484
0.313725
0.267974
0.261438
0.277124
0.303268
0.312418
0.254902
0.240523
0.247059
0.29281
0.264052
0.254902
0.267974
0.294118
0.345098
0.360784
0.350327
0.202614
0.282353
0.210458
0.266667
0.328105
0.299346
0.354248
0.347712
0.301961
0.322876
0.267974
0.252288
0.411765
0.31634
0.30719
0.315033
0.375163
0.313725
0.254902
0.28366
0.304575
0.294118
0.240523
0.227451
0.407843
0.375163
0.318954
0.351634
0.384314
0.366013
0.299346
0.393464
0.347712
0.368627
0.414379
0.383007
0.364706
0.377778
0.300654
0.271895
0.308497
0.343791
0.286275
0.295425
0.291503
0.332026
0.359477
0.317647
0.337255
0.317647
0.384314
0.386928
0.363399
0.415686
0.401307
0.332026
0.384314
0.337255
0.356863
0.315033
0.31634
0.321569
0.356863
0.30719
0.332026
0.376471
0.375163
0.309804
0.290196
0.350327
0.329412
0.398693
0.320261
0.299346
0.341176
0.359477
0.341176
0.31634
0.362092
0.299346
0.405229
0.328105
0.337255
0.326797
0.371242
0.304575
0.333333
0.315033
0.266667
0.312418
0.372549
0.403922
0.338562
0.295425
0.309804
0.34902
0.294118
0.282353
0.291503
0.324183
0.324183
0.284967
0.311111
0.262745
0.296732
0.265359
0.269281
0.308497
0.282353
0.299346
0.295425
0.305882
0.313725
0.317647
0.291503
0.30719
0.305882
0.305882
0.363399
0.393464
0.363399
0.317647
0.294118
0.30719
0.308497
0.305882
0.308497
0.334641
0.371242
0.333333
0.305882
0.330719
0.332026
0.32549
0.328105
0.392157
0.362092
0.413072
0.311111
0.381699
0.34902
0.300654
0.355556
0.35817
0.31634
0.369935
0.452288
0.385621
0.329412
0.29281
0.271895
0.326797
0.313725
0.296732
0.298039
0.264052
0.271895
0.260131
0.244444
0.405229
0.356863
0.338562
0.389542
0.360784
0.300654
0.326797
0.345098
0.298039
0.352941
0.375163
0.247059
0.237908
0.303268
0.281046
0.318954
0.269281
0.249673