# vtk DataFile Version 1.0
Unstructured Grid Example
ASCII

DATASET UNSTRUCTURED_GRID
POINTS 2625 float
45 600 0
46 600 0
45 599 0
46 599 0
47 599 0
45 598 0
47 598 0
45 597 0
47 597 0
48 597 0
45 596 0
48 596 0
49 596 0
45 595 0
49 595 0
50 595 0
45 594 0
50 594 0
45 593 0
50 593 0
51 593 0
45 592 0
51 592 0
52 592 0
45 591 0
52 591 0
53 591 0
45 590 0
53 590 0
54 590 0
45 589 0
54 589 0
55 589 0
45 588 0
55 588 0
56 588 0
45 587 0
56 587 0
57 587 0
45 586 0
57 586 0
58 586 0
45 585 0
58 585 0
59 585 0
45 584 0
59 584 0
60 584 0
45 583 0
60 583 0
61 583 0
45 582 0
61 582 0
62 582 0
45 581 0
62 581 0
63 581 0
45 580 0
63 580 0
64 580 0
45 579 0
64 579 0
65 579 0
45 578 0
65 578 0
66 578 0
45 577 0
66 577 0
67 577 0
45 576 0
67 576 0
68 576 0
45 575 0
68 575 0
69 575 0
45 574 0
69 574 0
70 574 0
71 574 0
45 573 0
71 573 0
72 573 0
45 572 0
72 572 0
73 572 0
45 571 0
73 571 0
74 571 0
45 570 0
74 570 0
75 570 0
76 570 0
45 569 0
76 569 0
77 569 0
45 568 0
77 568 0
78 568 0
45 567 0
78 567 0
79 567 0
45 566 0
79 566 0
80 566 0
81 566 0
45 565 0
46 565 0
81 565 0
82 565 0
46 564 0
82 564 0
83 564 0
46 563 0
83 563 0
84 563 0
85 563 0
46 562 0
85 562 0
86 562 0
46 561 0
86 561 0
87 561 0
46 560 0
87 560 0
88 560 0
89 560 0
46 559 0
89 559 0
90 559 0
46 558 0
90 558 0
91 558 0
92 558 0
46 557 0
92 557 0
93 557 0
46 556 0
93 556 0
94 556 0
95 556 0
46 555 0
95 555 0
96 555 0
46 554 0
96 554 0
97 554 0
98 554 0
46 553 0
98 553 0
99 553 0
46 552 0
99 552 0
100 552 0
101 552 0
46 551 0
101 551 0
102 551 0
46 550 0
102 550 0
103 550 0
104 550 0
46 549 0
104 549 0
105 549 0
46 548 0
105 548 0
106 548 0
107 548 0
46 547 0
47 547 0
107 547 0
108 547 0
109 547 0
47 546 0
109 546 0
110 546 0
111 546 0
47 545 0
111 545 0
112 545 0
113 545 0
47 544 0
113 544 0
114 544 0
47 543 0
114 543 0
115 543 0
116 543 0
47 542 0
116 542 0
117 542 0
118 542 0
47 541 0
118 541 0
119 541 0
120 541 0
47 540 0
120 540 0
121 540 0
122 540 0
47 539 0
122 539 0
123 539 0
124 539 0
125 539 0
47 538 0
125 538 0
126 538 0
47 537 0
126 537 0
127 537 0
128 537 0
129 537 0
47 536 0
129 536 0
130 536 0
131 536 0
47 535 0
131 535 0
132 535 0
133 535 0
47 534 0
48 534 0
133 534 0
134 534 0
135 534 0
48 533 0
135 533 0
136 533 0
137 533 0
48 532 0
137 532 0
138 532 0
139 532 0
140 532 0
48 531 0
140 531 0
141 531 0
142 531 0
143 531 0
48 530 0
143 530 0
144 530 0
145 530 0
48 529 0
145 529 0
146 529 0
147 529 0
148 529 0
48 528 0
148 528 0
149 528 0
150 528 0
48 527 0
150 527 0
151 527 0
152 527 0
153 527 0
48 526 0
153 526 0
154 526 0
155 526 0
156 526 0
157 526 0
48 525 0
157 525 0
158 525 0
159 525 0
48 524 0
159 524 0
160 524 0
161 524 0
162 524 0
163 524 0
48 523 0
163 523 0
164 523 0
165 523 0
166 523 0
48 522 0
49 522 0
166 522 0
167 522 0
168 522 0
169 522 0
170 522 0
49 521 0
170 521 0
171 521 0
172 521 0
173 521 0
174 521 0
49 520 0
174 520 0
175 520 0
176 520 0
177 520 0
178 520 0
49 519 0
178 519 0
179 519 0
180 519 0
181 519 0
182 519 0
183 519 0
49 518 0
183 518 0
184 518 0
185 518 0
186 518 0
187 518 0
49 517 0
187 517 0
188 517 0
189 517 0
190 517 0
191 517 0
192 517 0
193 517 0
49 516 0
193 516 0
194 516 0
195 516 0
196 516 0
197 516 0
198 516 0
199 516 0
49 515 0
199 515 0
200 515 0
201 515 0
202 515 0
203 515 0
204 515 0
205 515 0
49 514 0
205 514 0
206 514 0
207 514 0
208 514 0
209 514 0
210 514 0
211 514 0
212 514 0
49 513 0
50 513 0
212 513 0
213 513 0
214 513 0
215 513 0
216 513 0
217 513 0
218 513 0
219 513 0
220 513 0
50 512 0
219 512 0
220 512 0
221 512 0
222 512 0
223 512 0
224 512 0
225 512 0
226 512 0
227 512 0
50 511 0
226 511 0
227 511 0
228 511 0
229 511 0
230 511 0
231 511 0
232 511 0
233 511 0
234 511 0
235 511 0
50 510 0
235 510 0
236 510 0
237 510 0
238 510 0
239 510 0
240 510 0
241 510 0
242 510 0
243 510 0
50 509 0
243 509 0
244 509 0
245 509 0
246 509 0
247 509 0
248 509 0
249 509 0
250 509 0
50 508 0
250 508 0
251 508 0
252 508 0
253 508 0
254 508 0
255 508 0
256 508 0
257 508 0
258 508 0
50 507 0
258 507 0
259 507 0
260 507 0
261 507 0
262 507 0
263 507 0
264 507 0
265 507 0
266 507 0
50 506 0
266 506 0
267 506 0
268 506 0
269 506 0
270 506 0
271 506 0
272 506 0
273 506 0
50 505 0
51 505 0
273 505 0
274 505 0
275 505 0
276 505 0
277 505 0
278 505 0
279 505 0
280 505 0
281 505 0
51 504 0
281 504 0
282 504 0
283 504 0
284 504 0
285 504 0
286 504 0
287 504 0
51 503 0
287 503 0
288 503 0
289 503 0
290 503 0
291 503 0
292 503 0
293 503 0
294 503 0
51 502 0
294 502 0
295 502 0
296 502 0
297 502 0
298 502 0
299 502 0
300 502 0
51 501 0
300 501 0
301 501 0
302 501 0
303 501 0
304 501 0
305 501 0
306 501 0
51 500 0
306 500 0
307 500 0
308 500 0
309 500 0
310 500 0
311 500 0
312 500 0
51 499 0
312 499 0
313 499 0
314 499 0
315 499 0
316 499 0
317 499 0
318 499 0
51 498 0
317 498 0
318 498 0
319 498 0
320 498 0
321 498 0
322 498 0
323 498 0
51 497 0
323 497 0
324 497 0
325 497 0
326 497 0
327 497 0
328 497 0
51 496 0
52 496 0
328 496 0
329 496 0
330 496 0
331 496 0
332 496 0
333 496 0
52 495 0
333 495 0
334 495 0
335 495 0
336 495 0
337 495 0
52 494 0
337 494 0
338 494 0
339 494 0
340 494 0
341 494 0
342 494 0
52 493 0
342 493 0
343 493 0
344 493 0
345 493 0
346 493 0
347 493 0
52 492 0
347 492 0
348 492 0
349 492 0
350 492 0
351 492 0
52 491 0
351 491 0
352 491 0
353 491 0
354 491 0
355 491 0
52 490 0
355 490 0
356 490 0
357 490 0
358 490 0
359 490 0
52 489 0
53 489 0
359 489 0
360 489 0
361 489 0
362 489 0
363 489 0
53 488 0
363 488 0
364 488 0
365 488 0
366 488 0
367 488 0
53 487 0
367 487 0
368 487 0
369 487 0
370 487 0
53 486 0
370 486 0
371 486 0
372 486 0
373 486 0
374 486 0
375 486 0
53 485 0
375 485 0
376 485 0
377 485 0
378 485 0
53 484 0
378 484 0
379 484 0
380 484 0
381 484 0
53 483 0
381 483 0
382 483 0
383 483 0
384 483 0
53 482 0
54 482 0
384 482 0
385 482 0
386 482 0
387 482 0
54 481 0
387 481 0
388 481 0
389 481 0
390 481 0
391 481 0
54 480 0
391 480 0
392 480 0
393 480 0
394 480 0
54 479 0
394 479 0
395 479 0
396 479 0
397 479 0
54 478 0
397 478 0
398 478 0
399 478 0
400 478 0
54 477 0
400 477 0
401 477 0
402 477 0
403 477 0
54 476 0
55 476 0
403 476 0
404 476 0
405 476 0
55 475 0
405 475 0
406 475 0
407 475 0
408 475 0
55 474 0
408 474 0
409 474 0
410 474 0
411 474 0
55 473 0
411 473 0
412 473 0
413 473 0
414 473 0
55 472 0
414 472 0
415 472 0
416 472 0
55 471 0
416 471 0
417 471 0
418 471 0
419 471 0
55 470 0
56 470 0
419 470 0
420 470 0
421 470 0
56 469 0
421 469 0
422 469 0
423 469 0
56 468 0
423 468 0
424 468 0
425 468 0
426 468 0
56 467 0
426 467 0
427 467 0
428 467 0
429 467 0
56 466 0
429 466 0
430 466 0
431 466 0
56 465 0
431 465 0
432 465 0
433 465 0
56 464 0
57 464 0
433 464 0
434 464 0
435 464 0
57 463 0
435 463 0
436 463 0
437 463 0
438 463 0
57 462 0
438 462 0
439 462 0
440 462 0
57 461 0
440 461 0
441 461 0
442 461 0
57 460 0
442 460 0
443 460 0
444 460 0
57 459 0
444 459 0
445 459 0
446 459 0
57 458 0
58 458 0
446 458 0
447 458 0
448 458 0
58 457 0
448 457 0
449 457 0
450 457 0
58 456 0
450 456 0
451 456 0
452 456 0
58 455 0
452 455 0
453 455 0
454 455 0
58 454 0
454 454 0
455 454 0
456 454 0
58 453 0
59 453 0
456 453 0
457 453 0
458 453 0
59 452 0
458 452 0
459 452 0
460 452 0
59 451 0
460 451 0
461 451 0
462 451 0
59 450 0
462 450 0
463 450 0
464 450 0
59 449 0
464 449 0
465 449 0
59 448 0
60 448 0
465 448 0
466 448 0
467 448 0
60 447 0
467 447 0
468 447 0
469 447 0
60 446 0
469 446 0
470 446 0
471 446 0
60 445 0
471 445 0
472 445 0
473 445 0
60 444 0
473 444 0
474 444 0
60 443 0
61 443 0
474 443 0
475 443 0
476 443 0
61 442 0
476 442 0
477 442 0
478 442 0
61 441 0
478 441 0
479 441 0
61 440 0
479 440 0
480 440 0
481 440 0
61 439 0
481 439 0
482 439 0
61 438 0
62 438 0
482 438 0
483 438 0
484 438 0
62 437 0
484 437 0
485 437 0
486 437 0
62 436 0
486 436 0
487 436 0
62 435 0
487 435 0
488 435 0
489 435 0
62 434 0
63 434 0
489 434 0
490 434 0
63 433 0
490 433 0
491 433 0
492 433 0
63 432 0
492 432 0
493 432 0
63 431 0
493 431 0
494 431 0
63 430 0
64 430 0
494 430 0
495 430 0
496 430 0
64 429 0
496 429 0
497 429 0
64 428 0
497 428 0
498 428 0
499 428 0
64 427 0
499 427 0
500 427 0
64 426 0
65 426 0
500 426 0
501 426 0
502 426 0
65 425 0
502 425 0
503 425 0
65 424 0
503 424 0
504 424 0
505 424 0
65 423 0
504 423 0
505 423 0
506 423 0
65 422 0
506 422 0
507 422 0
65 421 0
66 421 0
507 421 0
508 421 0
66 420 0
508 420 0
509 420 0
510 420 0
66 419 0
510 419 0
511 419 0
66 418 0
511 418 0
512 418 0
66 417 0
67 417 0
512 417 0
513 417 0
67 416 0
513 416 0
514 416 0
67 415 0
514 415 0
515 415 0
516 415 0
67 414 0
516 414 0
517 414 0
67 413 0
68 413 0
517 413 0
518 413 0
68 412 0
518 412 0
519 412 0
68 411 0
519 411 0
520 411 0
68 410 0
69 410 0
520 410 0
521 410 0
69 409 0
521 409 0
522 409 0
69 408 0
522 408 0
523 408 0
69 407 0
523 407 0
524 407 0
69 406 0
70 406 0
524 406 0
525 406 0
70 405 0
525 405 0
526 405 0
70 404 0
526 404 0
527 404 0
70 403 0
527 403 0
528 403 0
70 402 0
71 402 0
528 402 0
71 401 0
528 401 0
529 401 0
530 401 0
71 400 0
530 400 0
71 399 0
72 399 0
530 399 0
531 399 0
72 398 0
531 398 0
532 398 0
72 397 0
532 397 0
533 397 0
72 396 0
73 396 0
533 396 0
534 396 0
73 395 0
534 395 0
535 395 0
73 394 0
535 394 0
73 393 0
74 393 0
535 393 0
536 393 0
73 392 0
74 392 0
536 392 0
537 392 0
74 391 0
537 391 0
74 390 0
537 390 0
538 390 0
74 389 0
75 389 0
538 389 0
539 389 0
75 388 0
539 388 0
540 388 0
75 387 0
540 387 0
75 386 0
76 386 0
540 386 0
541 386 0
76 385 0
541 385 0
542 385 0
76 384 0
542 384 0
76 383 0
77 383 0
542 383 0
543 383 0
77 382 0
543 382 0
544 382 0
77 381 0
544 381 0
77 380 0
78 380 0
544 380 0
545 380 0
78 379 0
545 379 0
78 378 0
545 378 0
546 378 0
78 377 0
79 377 0
546 377 0
79 376 0
546 376 0
547 376 0
79 375 0
547 375 0
79 374 0
80 374 0
547 374 0
548 374 0
80 373 0
548 373 0
549 373 0
80 372 0
81 372 0
549 372 0
81 371 0
549 371 0
550 371 0
81 370 0
550 370 0
81 369 0
82 369 0
550 369 0
551 369 0
82 368 0
551 368 0
82 367 0
551 367 0
552 367 0
82 366 0
83 366 0
552 366 0
83 365 0
552 365 0
83 364 0
552 364 0
553 364 0
83 363 0
84 363 0
553 363 0
[...]
CELL_DATA 2625
COLOR_SCALARS lut 1
0.080472
0.0796698
0.0802336
0.0793451
0.0790608
0.0798814
0.078549
0.0794858
0.0779956
0.0781764
0.0791206
0.0775925
0.0783006
0.0788541
0.0777579
0.0789676
0.0787441
0.0785198
0.0788355
0.0782827
0.0798757
0.0791619
0.0798015
0.0817997
0.0797463
0.0818986
0.0842499
0.0806006
0.0845219
0.0871765
0.0817262
0.087614
0.0905259
0.0831149
0.0911157
0.0942439
0.0847527
0.0949704
0.0982779
0.0866221
0.0991229
0.102577
0.0887042
0.103521
0.107094
0.0909804
0.108118
0.111787
0.093431
0.112873
0.116621
0.096035
0.117752
0.121563
0.0987719
0.122724
0.126582
0.101623
0.127761
0.131654
0.10457
0.132839
0.136752
0.1076
0.137937
0.141857
0.110696
0.143039
0.146956
0.113844
0.148133
0.152037
0.117029
0.153213
0.157095
0.12024
0.158273
0.16212
0.166287
0.123466
0.167103
0.171203
0.126698
0.172034
0.176066
0.129932
0.176922
0.180887
0.133166
0.18178
0.185678
0.189875
0.136398
0.190445
0.194564
0.13963
0.19519
0.199232
0.142866
0.199923
0.203893
0.146116
0.204657
0.208555
0.212747
0.149391
0.148402
0.213216
0.21732
0.15173
0.217872
0.221886
0.155098
0.222527
0.22645
0.230646
0.158506
0.23101
0.235102
0.161944
0.235571
0.23956
0.165398
0.240144
0.244033
0.248184
0.168855
0.248529
0.25257
0.172299
0.253052
0.25698
0.261144
0.175721
0.261412
0.265441
0.179109
0.265864
0.269749
0.273833
0.182456
0.274062
0.277976
0.185755
0.278375
0.282111
0.286009
0.189004
0.286236
0.289934
0.192201
0.29035
0.293843
0.297466
0.195349
0.297742
0.301143
0.198452
0.301635
0.304811
0.308087
0.201516
0.308474
0.31151
0.204546
0.312138
0.314932
0.317805
0.207548
0.207292
0.318357
0.320979
0.323677
0.210242
0.324166
0.326615
0.329149
0.213166
0.329583
0.331883
0.334281
0.216056
0.33467
0.336848
0.218898
0.337521
0.339486
0.341566
0.221675
0.342205
0.344075
0.346056
0.224363
0.346674
0.348444
0.350323
0.22694
0.350933
0.352603
0.354382
0.229383
0.355
0.356581
0.358279
0.360101
0.231675
0.360435
0.362078
0.233803
0.362753
0.364224
0.365833
0.367578
0.235762
0.367988
0.369565
0.371277
0.237557
0.371736
0.373276
0.37494
0.239197
0.239269
0.375457
0.376939
0.378531
0.240716
0.379117
0.380517
0.382014
0.242029
0.382686
0.383986
0.385375
0.386852
0.243219
0.387345
0.388627
0.389998
0.39146
0.244301
0.391807
0.393083
0.394447
0.245292
0.394943
0.396121
0.397382
0.398723
0.246208
0.399117
0.400273
0.401502
0.247066
0.402083
0.403123
0.404228
0.405395
0.247882
0.405928
0.406906
0.407946
0.409053
0.410229
0.248672
0.41051
0.411517
0.412596
0.249446
0.413141
0.414054
0.415029
0.416062
0.417148
0.250214
0.417521
0.418434
0.419395
0.420401
0.250979
0.251139
0.420868
0.421699
0.422571
0.423483
0.424436
0.251825
0.424825
0.425613
0.426446
0.427322
0.428239
0.252499
0.428605
0.42937
0.430175
0.431017
0.431892
0.253154
0.432283
0.433005
0.433759
0.434547
0.435368
0.436224
0.253786
0.436513
0.437233
0.437987
0.438769
0.439574
0.254394
0.439989
0.440652
0.441334
0.442036
0.442761
0.443509
0.444285
0.254981
0.444572
0.445227
0.445906
0.446603
0.447316
0.448039
0.448772
0.255551
0.449017
0.449618
0.450227
0.450843
0.45147
0.452112
0.452772
0.256107
0.453037
0.453586
0.454151
0.454725
0.455304
0.455888
0.456475
0.457063
0.256653
0.25688
0.457291
0.457762
0.458236
0.458713
0.459198
0.459698
0.46022
0.46077
0.461351
0.257328
0.461028
0.461498
0.462
0.462528
0.463076
0.463637
0.464208
0.464783
0.465361
0.257772
0.465094
0.465561
0.466028
0.466496
0.466965
0.467441
0.467929
0.468439
0.468977
0.469548
0.258217
0.469705
0.470199
0.470718
0.471254
0.471802
0.472357
0.472922
0.473496
0.47408
0.258671
0.474204
0.474686
0.475177
0.475676
0.476187
0.476715
0.477265
0.477837
0.259141
0.478025
0.47851
0.479013
0.479527
0.480048
0.480573
0.481104
0.481642
0.482187
0.259637
0.482335
0.482779
0.483229
0.483686
0.484153
0.484637
0.485146
0.485687
0.486262
0.260164
0.48638
0.486878
0.487404
0.487949
0.488508
0.489078
0.489658
0.490245
0.260724
0.261008
0.490413
0.490894
0.491381
0.491875
0.492381
0.492906
0.49346
0.494049
0.494679
0.261498
0.494758
0.49531
0.495896
0.49651
0.497148
0.497805
0.49848
0.262009
0.498657
0.499222
0.499802
0.500397
0.501013
0.501656
0.502334
0.503051
0.262529
0.503171
0.5038
0.504465
0.505159
0.505877
0.506617
0.507376
0.263052
0.507536
0.508177
0.508831
0.509499
0.510187
0.510898
0.511638
0.263575
0.511804
0.512437
0.513099
0.513788
0.514503
0.515245
0.516015
0.264098
0.516165
0.516821
0.517503
0.518212
0.518953
0.519729
0.520547
0.264624
0.519985
0.520657
0.521371
0.522127
0.522923
0.523757
0.524627
0.265156
0.524795
0.525544
0.526327
0.527146
0.528001
0.528897
0.265697
0.26589
0.529077
0.529853
0.530671
0.531529
0.532428
0.533366
0.266338
0.533524
0.534334
0.535183
0.536072
0.537
0.266798
0.537278
0.538073
0.538904
0.539772
0.540677
0.541621
0.267277
0.541835
0.542646
0.543501
0.544403
0.545357
0.546369
0.26778
0.546501
0.547394
0.54835
0.549365
0.550437
0.268315
0.550633
0.551575
0.55257
0.553614
0.55471
0.268887
0.554938
0.555893
0.556897
0.55795
0.559051
0.269499
0.269738
0.559286
0.56024
0.561244
0.562303
0.563417
0.270271
0.563637
0.56461
0.565644
0.56674
0.5679
0.270835
0.568089
0.569109
0.570192
0.571337
0.271421
0.571683
0.572683
0.573745
0.574871
0.576071
0.57735
0.272024
0.577419
0.578576
0.579826
0.581173
0.272642
0.581357
0.582579
0.583894
0.585294
0.273275
0.585564
0.586818
0.588148
0.589546
0.273924
0.274137
0.589879
0.59111
0.592401
0.593749
0.274679
0.594136
0.59531
0.596546
0.597847
0.599224
0.275242
0.599424
0.600648
0.60196
0.603365
0.275829
0.603601
0.604864
0.606228
0.607693
0.276446
0.607945
0.609271
0.610703
0.61224
0.277098
0.612484
0.613876
0.615375
0.61698
0.277788
0.278044
0.617193
0.618647
0.620205
0.278641
0.620623
0.622021
0.623516
0.625107
0.279271
0.625459
0.626886
0.628415
0.630049
0.279929
0.630322
0.631802
0.633397
0.635113
0.280609
0.635297
0.636873
0.638579
0.281311
0.638929
0.640497
0.6422
0.644036
0.282035
0.282298
0.644267
0.645963
0.647792
0.282909
0.648167
0.649843
0.651641
0.283545
0.652149
0.65378
0.655524
0.65738
0.284209
0.65773
0.659419
0.661232
0.663177
0.284906
0.663359
0.665156
0.667095
0.285642
0.667386
0.66918
0.671117
0.286419
0.286665
0.671504
0.673293
0.675226
0.287344
0.675695
0.677478
0.67941
0.681494
0.288061
0.681736
0.68368
0.685787
0.288809
0.686087
0.688055
0.69019
0.289586
0.690536
0.692527
0.694684
0.29039
0.695063
0.697073
0.699248
0.291219
0.291413
0.699649
0.701674
0.703865
0.292121
0.70428
0.706317
0.708515
0.292856
0.708938
0.710979
0.713179
0.29362
0.713603
0.715643
0.717843
0.294417
0.718263
0.720302
0.722505
0.295252
0.295493
0.722915
0.724961
0.727179
0.296214
0.727573
0.729646
0.731903
0.296973
0.732277
0.734399
0.736717
0.29777
0.737064
0.739257
0.741655
0.298601
0.741965
0.744241
0.299465
0.299716
0.744834
0.746987
0.749349
0.300453
0.749886
0.752121
0.754561
0.301224
0.755032
0.757344
0.759866
0.302032
0.760266
0.762664
0.765281
0.302883
0.765603
0.768103
0.303782
0.304011
0.768678
0.771064
0.773679
0.304794
0.77416
0.776662
0.779395
0.305627
0.77977
0.782392
0.306507
0.782998
0.785509
0.788259
0.307434
0.788741
0.791377
0.308408
0.308581
0.792076
0.794601
0.797365
0.309427
0.797925
0.800581
0.803484
0.310321
0.803901
0.806704
0.311263
0.807326
0.810032
0.812996
0.312255
0.312509
0.813464
0.816333
0.313372
0.816994
0.819765
0.822792
0.314285
0.823283
0.826205
0.315246
0.826875
0.829691
0.316251
0.316558
0.830537
0.833246
0.836207
0.317423
0.836867
0.839718
0.318331
0.840553
0.843296
0.846286
0.319285
0.846942
0.849826
0.320284
0.320633
0.850662
0.853445
0.856483
0.321495
0.85715
0.860095
0.322406
0.860945
0.863807
0.866936
0.323365
0.864839
0.867626
0.870679
0.324374
0.871556
0.874542
0.325434
0.325631
0.875605
0.878527
0.326559
0.879778
0.882635
0.885755
0.327545
0.886863
0.889906
0.328594
0.891208
0.894171
0.329709
0.329922
0.895669
0.898557
0.330913
0.900251
0.903063
0.331973
0.904954
0.907688
0.910671
0.3331
0.912426
0.91532
0.334293
0.33449
0.917267
0.920072
0.335544
0.922205
0.924926
0.336658
0.927236
0.929877
0.337829
0.338181
0.932353
0.934917
0.339199
0.937544
0.940029
0.340272
0.942788
0.945192
0.341399
0.948058
0.950377
0.34258
0.342857
0.953318
0.955551
0.343884
0.958531
0.960673
0.344973
0.963653
0.965704
0.346127
0.96864
0.970597
0.347353
0.347532
0.973444
0.348618
0.9766
0.978016
0.979791
0.349784
0.982302
0.351029
0.351306
0.985017
0.986246
0.352409
0.988665
0.989801
0.353589
0.991878
0.992919
0.354845
0.355204
0.99461
0.995556
0.356313
0.996816
0.997675
0.357498
0.998462
0.358762
0.359192
0.99921
0.999524
0.360103
0.360307
0.999735
1
0.361502
0.999677
0.362781
0.999287
0.999095
0.364148
0.364404
0.998227
0.998066
0.365626
0.996764
0.99667
0.366937
0.99498
0.368338
0.368625
0.993336
0.992957
0.369877
0.991007
0.99077
0.37122
0.988553
0.372658
0.372957
0.986457
0.986033
0.374246
0.98372
0.983495
0.375633
0.980981
0.377118
0.377409
0.978618
0.978273
0.378743
0.975728
0.380174
0.973342
0.972902
0.381703
0.381972
0.970346
0.383349
0.967956
0.967444
0.384828
0.964898
0.386409
0.386637
0.962533
0.961968
0.388063
0.959466
0.95919
0.389587
0.390018
0.956559
0.39138
0.954116
0.953836
0.392836
0.951274
0.394385
0.394749
0.948899
0.948641
0.39613
0.946147
0.397607
0.943829
0.943615
0.399182
0.399469
0.94117
0.400882
0.938886
0.402405
0.936757
0.936314
0.404043
0.404241
0.934048
0.405731
0.931933
0.931575
0.407345
0.407711
0.92933
0.409181
0.927244
0.926992
0.410778
0.924787
0.412502
0.412754
0.922742
0.922624
0.414332
0.920467
0.416036
0.416434
0.918462
0.417986
0.916605
0.916385
0.419663
0.914409
0.421466
0.421722
0.912571
0.423374
0.910865
0.910586
0.425157
0.425536
0.908759
0.427171
0.907056
0.907004
0.428943
0.90518
0.430857
0.431059
0.903469
0.43283
0.901866
0.434751
0.435046
0.900364
0.900098
0.436824
0.898463
0.438752
0.439127
0.896926
0.440902
0.895485
0.895287
0.442818
0.443262
0.893725
0.445012
0.892262
0.446895
0.447401
0.890898
0.890813
0.449116
0.889339
0.450971
0.887958
0.452972
0.453231
0.886666
0.455085
0.885459
0.885344
0.457103
0.457411
0.88403
0.459293
0.882796
0.461349
0.461696
0.881642
0.463619
0.880565
0.880499
0.465719
0.466094
0.879321
0.468056
0.878213
0.470192
0.470582
0.877169
0.472573
0.876182
0.474735
0.475131
0.87525
0.875144
0.477144
0.874109
0.479329
0.479723
0.873128
0.481763
0.872199
0.483983
0.484368
0.871323
0.486453
0.870499
0.870458
0.488731
0.489098
0.869545
0.491251
0.868681
0.493608
0.493948
0.867858
0.49619
0.867071
0.498644
0.498945
0.866313
0.501286
0.501864
0.86558
0.865592
0.504091
0.864769
0.506533
0.507047
0.86397
0.509367
0.863194
0.511898
0.512336
0.862437
0.514742
0.861696
0.517363
0.517715
0.86097
0.520214
0.520814
0.860263
0.523193
0.859578
0.859617
0.525796
0.526293
0.858875
0.528778
0.858159
0.531491
0.531877
0.857464
0.534474
0.535088
0.856778
0.53757
0.856083
0.540283
0.540771
0.85536
0.543364
0.544068
0.854588
0.546542
0.853745
0.549248
0.549814
0.852806
0.552405
0.851751
0.555234
0.555659
0.850558
0.558385
0.559014
0.849208
0.561642
0.847682
0.847706
0.564528
0.565007
0.845937
0.567803
0.568476
0.843957
0.571187
0.572046
0.841746
0.574169
0.574676
0.839282
0.577578
0.578263
0.836548
0.581087
0.581945
0.833533
0.584692
0.830237
0.587715
0.588384
0.826665
0.591324
0.592157
0.822828
0.595014
0.596008
0.818735
0.59815
0.598785
0.814399
0.601841
0.602634
0.809829
0.605612
0.606557
0.805032
0.609461
0.610556
0.800016
0.613384
0.794785
0.616483
0.617373
0.789345
0.620384
0.621425
0.783702
0.624349
0.625542
0.777866
0.62838
0.771851
0.631476
0.632475
0.765677
0.635479
0.63663
0.759366
0.639547
0.640843
0.752938
0.643682
0.645121
0.746415
0.647887
0.649467
0.739711
0.739812
0.652166
0.653889
0.732984
0.656524
0.726189
0.659425
0.660965
0.719329
0.663791
0.665495
0.712408
0.668253
0.670124
0.705431
0.672824
0.674866
0.698402
0.677517
0.679731
0.691327
0.682343
0.684724
0.684212
0.687301
0.689844
0.677065
0.692387
0.695086
0.669894
0.697592
0.700444
0.662706
0.702907
0.705907
0.655512
0.708319
0.711463
0.648318
0.713816
0.717101
0.640972
0.64113
0.719387
0.722803
0.633707
0.725016
0.728557
0.626441
0.730688
0.734343
0.619174
0.736387
0.740144
0.611906
0.742097
0.745944
0.604639
0.747804
0.751729
0.59738
0.7535
0.757488
0.590134
0.759179
0.763207
0.767699
0.58291
0.768871
0.773346
0.575556
0.575711
0.774471
0.778918
0.568279
0.780015
0.784432
0.561023
0.78552
0.789906
0.794675
0.553789
0.795349
0.800061
0.54658
0.800771
0.805427
0.5394
0.80619
0.810789
0.815728
0.532253
0.81616
0.821027
0.525037
0.525145
0.821544
0.826343
0.517846
0.826956
0.831685
0.836724
0.510685
0.837058
0.842011
0.503554
0.842463
0.847328
0.852478
0.496453
0.852679
0.857733
0.489384
0.858071
0.863033
0.482351
0.863514
0.868387
0.873531
0.475174
0.475353
0.873793
0.878829
0.468071
0.879252
0.884171
0.889328
0.460994
0.889553
0.894569
0.453941
0.894972
0.899838
0.904907
0.446912
0.900426
0.905135
0.910026
0.43991
0.91045
0.915145
0.919982
0.432693
0.43294
0.920253
0.924846
0.929525
0.425598
0.929651
0.934032
0.418533
0.934374
0.938432
0.942491
0.411502
0.942696
0.946363
0.949955
0.404428
0.40451
0.950022
0.953144
0.956116
0.397311
0.956044
0.958476
0.390231
0.958625
0.960496
0.962153
0.383192
0.962167
0.963247
0.964119
0.3762
0.964013
0.964345
0.964516
0.369141
0.369259
0.964312
0.964008
0.963603
0.362082
0.963325
0.962512
0.961655
0.355072
0.961327
0.960122
0.958921
0.348114
0.958562
0.957065
0.95561
0.34121
0.955236
0.953524
0.951887
0.334162
0.334363
0.951512
0.949651
0.94789
0.32719
0.947528
0.945571
0.943733
0.320268
0.943398
0.941382
0.939497
0.313395
0.939204
0.937153
0.935237
0.306412
0.306574
0.935
0.93292
0.930969
0.929142
0.299448
0.928681
0.926687
0.924818
0.29253
0.924439
0.922413
0.920521
0.285664
0.920239
0.918202
0.916309
0.278683
0.278854
0.916139
0.914109
0.91222
0.910469
0.271732
0.910153
0.908265
0.906508
0.904881
0.264842
0.904436
0.902668
0.901028
0.25802
0.900736
0.898953
0.897293
0.89575
0.251049
0.251274
0.895359
0.89367
0.892096
0.244178
0.891884
0.890162
0.88855
0.887048
0.237393
0.88677
0.885116
0.883565
0.882116
0.230601
0.230701
0.881789
0.880187
0.878683
0.877277
0.223791
0.876912
0.875353
0.873889
0.872521
0.217077
0.872131
0.870617
0.869203
0.210473
0.210462
0.869049
0.867497
0.866047
0.864697
0.203747
0.203952
0.864557
0.863067
0.861667
0.860353
0.85912
0.197131
0.858785
0.8574
0.85609
0.854855
0.190631
0.854576
0.853189
0.851874
0.850632
0.184155
0.184261
0.850423
0.849029
0.847701
0.84644
0.845244
0.177707
0.844895
0.843546
0.842267
0.841059
0.171409
0.840805
0.839457
0.838186
0.836991
0.165269
0.165274
0.836854
0.835527
0.834275
0.833093
0.831979
0.159099
0.159318
0.831777
0.830527
0.829339
0.828211
0.827142
0.153126
0.826906
0.825698
0.824548
0.82346
0.822431
0.147482
0.147368
0.822184
0.821023
0.819921
0.818877
0.817889
0.141756
0.81765
0.816527
0.815461
0.81445
0.813497
0.136291
0.813286
0.812206
0.811184
0.810218
0.809307
0.131401
0.131114
0.80915
0.808113
0.807126
0.806186
0.805291
0.804441
0.126366
0.804185
0.803203
0.802267
0.801375
0.800527
0.121689
0.800374
0.7994
0.798469
0.797579
0.79673
0.795921
0.117963
0.117403
0.795732
0.794801
0.793908
0.793054
0.792235
0.791453
0.113969
0.791257
0.790352
0.789485
0.788655
0.787862
0.787107
0.110437
0.786929
0.786058
0.785227
0.784434
0.783678
0.782956
0.108363
0.107391
0.78282
0.781983
0.781179
0.780404
0.779658
0.77894
0.778251
0.105741
0.778038
0.777235
0.776464
0.775723
0.775011
0.77433
0.103637
0.774218
0.773429
0.772672
0.771948
0.771259
0.770604
0.769987
0.103546
0.102044
0.769891
0.769188
0.768521
0.76789
0.767286
0.766703
0.766138
0.765589
0.102424
0.765446
0.764793
0.764158
0.763541
0.762944
0.762367
0.761811
0.761282
0.101805
0.100358
0.0995497
0.0993938
0.761137
0.760521
0.759934
0.759372
0.75883
0.758303
0.757787
0.757281
0.0992225
0.099644
0.100657
0.757176
0.756572
0.755983
0.755409
0.754849
0.754305
0.753775
0.753264
0.75278
0.100734
0.10216
0.752653
0.752093
0.751563
0.751061
0.750579
0.750111
0.74965
0.749195
0.748745
0.102484
0.104203
0.106311
0.748649
0.74811
0.74758
0.74706
0.74655
0.746049
0.745558
0.74508
0.74462
0.744188
0.1066
0.108793
0.11123
0.744098
0.743613
0.743165
0.742752
0.742369
0.742004
0.74165
0.741298
0.740941
0.740577
0.740208
0.111346
0.113687
0.116157
0.740123
0.739672
0.739219
0.738766
0.738309
0.737847
0.737374
0.736893
0.7364
0.735904
0.735409
0.734927
0.734464
0.116009
0.118264
0.120579
0.734861
0.734329
0.733823
0.733342
0.732881
0.732433
0.731984
0.73152
0.731025
0.730483
0.729878
0.729196
0.728424
0.72755
0.120127
0.122171
0.124249
0.727504
0.726455
0.725278
0.723952
0.722454
0.720758
0.718835
0.716657
0.714198
0.711434
0.708349
0.704938
0.70121
0.697184
0.692882
0.688327
0.123497
0.125302
0.127151
0.688347
0.683502
0.678436
0.673162
0.667694
0.662047
0.656236
0.650276
0.644184
0.637973
0.63166
0.625262
0.618794
0.61227
0.605705
0.599112
0.592506
0.585893
0.579282
0.126129
0.127735
0.579298
0.572639
0.565978
0.55931
0.552636
0.545952
0.53926
0.532559
0.525852
0.51914
0.512426
0.50571
0.498993
0.492277
0.485561
0.478844
0.472125
0.465403
0.458675
0.451942
0.445201
0.438452
0.431695
0.424928
0.126769
0.128158
0.129619
0.424919
0.418092
0.411243
0.404367
0.397463
0.390529
0.383566
0.376579
0.36957
0.362547
0.355514
0.348478
0.341446
0.334423
0.327415
0.320429
0.31347
0.306544
0.299656
0.292812
0.286021
0.279289
0.272626
0.266043
0.259548
0.128456
0.129729
0.131084
0.259402
0.252929
0.246544
0.240247
0.234042
0.227935
0.221933
0.216047
0.210289
0.204673
0.199214
0.193924
0.129763
0.130943
0.132205
0.193669
0.18847
0.183463
0.17866
0.130758
0.131855
0.133038
0.178801
0.174109
0.169637
0.13149
0.13252
0.133641
0.170206
0.165848
0.161721
0.157831
0.132013
0.132992
0.134069
0.158659
0.154904
0.151401
0.132374
0.13332
0.134371
0.152544
0.149182
0.146074
0.132617
0.133551
0.134602
0.147484
0.144509
0.141781
0.132795
0.133741
0.143413
0.140801
0.138424
0.13211
0.132958
0.133929
0.14024
0.137958
0.135896
0.132254
0.133128
0.134123
0.137857
0.135867
0.134081
0.132407
0.133302
0.134318
0.136151
0.134409
0.132855
0.132564
0.133483
0.134529
0.135001
0.133464
0.132101
0.130904
0.132743
0.133701
0.132913
0.131695
0.132105
0.132984
0.133998
0.133895
0.132634
0.13152
0.130549
0.132384
0.133322
0.134392
0.132518
0.131477
0.130573
0.132766
0.13375
0.134855
0.132487
0.131498
0.130645
0.133221
0.13423
0.135356
0.132494
0.131551
0.130747
0.133716
0.134744
0.135889
0.132531
0.131637
0.130881
0.134245
0.135293
0.136462
0.132604
0.131753
0.134813
0.135887
0.137084
0.133649
0.132697
0.13187
0.13543
0.136533
0.13776
0.133714
0.132774
0.131948
0.136098
0.137229
0.133746
0.132802
0.131966
0.135777
0.136816
0.137976
0.139265
0.133722
0.132767
0.13192
0.137588
0.138785
0.133637
0.132674
0.131822
0.13732
0.13843
0.139672
0.133502
0.132538
0.131689
0.138201
0.139355
0.140642
0.133334
0.13238
0.131546
0.139162
0.140363
0.141701
0.133157
0.132223
0.14021
0.141463
0.142857
0.134021
0.132986
0.132075
0.14135
0.142657
0.133832
0.132815
0.131918
0.141361
0.14258
0.143933
0.133634
0.132632
0.131755
0.142619
0.143876
0.145262
0.133429
0.132458
0.131623
0.143929
0.14521
0.146617
0.133255
0.132342
0.131575
0.145264
0.146559
0.147978
0.133158
0.132317
0.146603
0.147912
0.149353
0.13407
0.13315
0.132378
0.147953
0.149289
0.134067
0.133212
0.132504
0.148103
0.149338
0.150711
0.134121
0.133331
0.149498
0.15077
0.152179
0.135104
0.134231
0.133508
0.150935
0.15224
0.153687
0.135201
0.134397
0.133744
0.152407
0.15375
0.155242
0.135354
0.13462
0.153919
0.155309
0.136376
0.135559
0.134897
0.154191
0.155481
0.156921
0.13656
0.13582
0.13524
0.155756
0.157094
0.158581
0.136805
0.13615
0.15613
0.157365
0.158744
0.160268
0.13785
0.137118
0.13655
0.158999
0.160414
0.13814
0.137495
0.159344
0.160654
0.162123
0.139212
0.13849
0.137938
0.160989
0.162362
0.16391
0.139535
0.138914
0.138469
0.162702
0.164162
0.139942
0.139435
0.163139
0.164513
0.166071
0.141022
0.140454
0.164957
0.166427
0.142153
0.141522
0.14108
0.16549
0.166873
0.168443
0.142639
0.142136
0.167407
0.16889
0.170566
0.143803
0.143237
0.142858
0.168028
0.169427
0.171019
0.144379
0.143935
0.170054
0.171565
0.145559
0.145046
0.14472
0.170775
0.172209
0.173846
0.146187
0.145794
0.172952
0.174514
0.176289