# vtk DataFile Version 1.0
Unstructured Grid Example
ASCII

DATASET UNSTRUCTURED_GRID
POINTS 382 float
533 1 0
82 611 0
584 129 0
727 62 0
732 26 0
54 478 0
0 84 0
0 337 0
0 151 0
0 561 0
45 593 0
67 611 0
115 611 0
69 574 0
568 260 0
294 503 0
225 611 0
547 375 0
591 150 0
552 171 0
494 1 0
721 1 0
762 52 0
0 12 0
0 19 0
0 4 0
46 1 0
92 1 0
386 1 0
168 242 0
146 260 0
56 1 0
91 344 0
101 323 0
84 363 0
62 435 0
0 298 0
0 283 0
0 310 0
0 350 0
0 399 0
46 550 0
0 537 0
0 530 0
48 531 0
37 611 0
4 611 0
48 611 0
50 595 0
45 587 0
60 611 0
401 611 0
341 611 0
261 611 0
89 611 0
76 611 0
58 456 0
126 537 0
227 512 0
572 160 0
579 156 0
588 126 0
557 168 0
548 173 0
441 611 0
564 611 0
564 228 0
552 186 0
762 433 0
753 611 0
762 609 0
626 611 0
762 186 0
762 333 0
625 132 0
762 135 0
762 124 0
762 67 0
762 60 0
762 88 0
762 41 0
653 116 0
593 123 0
689 34 0
715 71 0
721 66 0
694 29 0
596 1 0
711 1 0
702 20 0
715 1 0
719 18 0
762 32 0
749 1 0
756 1 0
0 31 0
0 8 0
0 48 0
0 58 0
0 69 0
0 131 0
0 107 0
0 172 0
74 1 0
0 40 0
112 1 0
24 1 0
18 1 0
4 1 0
12 1 0
37 1 0
140 1 0
295 1 0
161 1 0
246 1 0
195 1 0
365 1 0
443 1 0
419 1 0
339 1 0
320 1 0
419 165 0
465 162 0
444 164 0
406 167 0
380 169 0
401 167 0
221 1 0
269 1 0
357 173 0
184 229 0
135 272 0
238 203 0
218 212 0
318 180 0
337 176 0
299 184 0
276 190 0
257 196 0
426 467 0
446 458 0
411 473 0
125 284 0
79 376 0
110 307 0
75 389 0
71 399 0
68 412 0
65 423 0
60 447 0
56 464 0
0 389 0
0 362 0
0 193 0
0 212 0
0 269 0
0 378 0
0 325 0
0 256 0
0 242 0
0 412 0
0 420 0
0 435 0
0 447 0
0 458 0
0 467 0
0 478 0
0 510 0
0 519 0
0 499 0
0 486 0
53 488 0
51 498 0
50 513 0
49 522 0
78 568 0
86 561 0
93 557 0
47 538 0
45 566 0
46 557 0
0 544 0
0 554 0
0 574 0
0 594 0
0 582 0
0 588 0
0 600 0
0 607 0
0 611 0
10 611 0
16 611 0
21 611 0
29 611 0
54 611 0
41 611 0
47 599 0
58 586 0
54 590 0
45 581 0
45 576 0
63 581 0
153 611 0
125 611 0
191 611 0
96 611 0
141 611 0
103 611 0
165 611 0
203 611 0
214 611 0
364 611 0
378 611 0
306 611 0
457 611 0
321 611 0
275 611 0
245 611 0
293 611 0
426 611 0
176 611 0
180 519 0
191 517 0
210 514 0
113 544 0
100 552 0
137 532 0
148 528 0
167 522 0
261 507 0
243 510 0
279 505 0
315 499 0
343 493 0
328 496 0
358 490 0
373 486 0
394 480 0
552 146 0
542 150 0
547 149 0
558 143 0
574 135 0
579 131 0
601 145 0
596 147 0
565 139 0
536 153 0
584 153 0
566 163 0
530 156 0
516 160 0
525 159 0
508 161 0
499 161 0
480 162 0
520 411 0
535 394 0
498 428 0
482 439 0
466 448 0
478 611 0
498 611 0
517 611 0
537 611 0
568 295 0
567 315 0
561 340 0
566 242 0
559 209 0
557 200 0
551 180 0
555 193 0
562 166 0
723 611 0
705 611 0
744 611 0
694 611 0
654 611 0
602 611 0
680 611 0
715 611 0
736 611 0
762 598 0
759 611 0
762 605 0
762 590 0
762 578 0
762 570 0
762 552 0
762 539 0
762 513 0
762 264 0
762 354 0
762 308 0
762 245 0
762 483 0
762 457 0
762 407 0
762 286 0
762 383 0
629 129 0
606 142 0
613 138 0
620 134 0
641 123 0
636 125 0
762 213 0
762 167 0
762 155 0
762 81 0
762 103 0
762 95 0
762 113 0
762 75 0
762 46 0
744 45 0
739 50 0
731 57 0
672 55 0
682 43 0
677 48 0
710 76 0
698 85 0
704 81 0
690 91 0
681 98 0
675 102 0
659 112 0
664 108 0
669 105 0
647 120 0
606 116 0
598 121 0
610 113 0
614 110 0
620 106 0
640 90 0
629 99 0
636 94 0
625 103 0
649 83 0
644 86 0
652 78 0
660 70 0
667 60 0
694 1 0
700 1 0
698 25 0
687 1 0
658 1 0
650 1 0
640 1 0
675 1 0
681 1 0
563 1 0
518 1 0
549 1 0
468 1 0
608 1 0
580 1 0
619 1 0
629 1 0
667 1 0
704 1 0
729 1 0
725 1 0
738 1 0
714 17 0
708 17 0
740 33 0
736 29 0
727 21 0
762 26 0
744 37 0
762 37 0
762 21 0
762 16 0
762 10 0
743 1 0
762 6 0
762 1 0

CELLS 556 2224
3 121 123 265
3 102 29 30
3 316 80 315
3 85 83 86
3 177 44 174
3 130 8 100
3 248 242 18
3 19 63 239
3 178 43 44
3 47 195 196
3 41 178 176
3 50 198 11
3 55 201 1
3 180 9 182
3 37 33 36
3 303 66 302
3 210 223 16
3 133 29 130
3 297 17 68
3 78 77 317
3 61 244 245
3 125 260 129
3 243 2 18
3 318 85 86
3 379 93 371
3 109 24 23
3 273 271 62
3 242 243 18
3 118 117 123
3 149 227 56
3 15 231 29
3 103 6 99
3 144 230 33
3 34 7 32
3 229 230 144
3 33 58 32
3 156 145 146
3 228 221 204
3 149 162 35
3 33 32 38
3 144 33 37
3 33 38 36
3 7 34 39
3 39 34 143
3 199 49 185
3 181 42 178
3 171 5 57
3 172 169 170
3 178 44 176
3 171 166 5
3 191 187 184
3 192 186 49
3 196 10 48
3 50 48 198
3 10 49 198
3 179 201 200
3 194 48 50
3 299 14 292
3 237 141 219
3 13 175 1
3 1 175 54
3 11 197 55
3 209 222 223
3 150 164 56
3 205 175 176
3 5 150 226
3 32 58 223
3 230 53 217
3 18 66 269
3 249 238 241
3 244 66 18
3 59 249 241
3 357 61 243
3 2 243 61
3 60 248 269
3 19 239 240
3 255 268 122
3 121 124 126
3 141 139 64
3 139 140 261
3 273 249 272
3 269 270 60
3 123 121 118
3 271 19 62
3 256 257 71
3 276 283 69
3 295 14 268
3 298 17 267
3 61 82 244
3 324 322 311
3 305 74 301
3 308 72 81
3 314 3 318
3 77 314 318
3 312 84 79
3 304 303 332
3 325 76 75
3 355 82 61
3 332 334 304
3 324 321 322
3 85 79 84
3 310 85 3
3 84 83 85
3 318 86 348
3 336 306 301
3 363 320 350
3 369 88 368
3 348 89 368
3 348 349 89
3 91 368 21
3 21 368 90
3 318 348 4
3 368 88 90
3 316 374 80
3 370 371 376
3 93 94 378
3 106 95 24
3 108 96 25
3 109 23 96
3 26 31 97
3 31 98 97
3 31 99 98
3 103 27 6
3 101 105 100
3 27 101 6
3 27 105 101
3 29 102 8
3 30 131 154
3 31 103 99
3 110 104 95
3 26 97 104
3 130 100 105
3 110 95 106
3 106 24 107
3 109 96 108
3 107 24 109
3 26 104 110
3 130 105 111
3 133 111 113
3 135 119 129
3 132 133 115
3 118 121 28
3 252 250 63
3 358 20 255
3 126 124 125
3 116 28 125
3 129 116 125
3 255 66 268
3 119 116 129
3 117 122 123
3 239 356 238
3 14 123 122
3 14 265 123
3 265 266 267
3 17 257 258
3 138 132 127
3 28 126 125
3 28 121 126
3 137 138 114
3 132 115 127
3 135 129 139
3 112 120 134
3 124 258 259
3 112 136 128
3 15 29 133
3 29 8 130
3 159 131 142
3 30 29 229
3 233 234 138
3 133 113 115
3 234 133 132
3 130 111 133
3 112 134 136
3 135 139 141
3 120 135 134
3 120 119 135
3 128 136 137
3 134 135 141
3 128 137 114
3 237 134 141
3 114 138 127
3 137 233 138
3 219 141 64
3 134 236 136
3 260 140 129
3 139 129 140
3 212 211 235
3 236 137 136
3 155 158 144
3 131 229 142
3 222 221 145
3 155 144 37
3 142 229 144
3 34 222 143
3 146 40 151
3 143 222 145
3 147 40 146
3 221 147 145
3 146 145 147
3 161 148 35
3 160 147 148
3 163 149 56
3 35 148 228
3 226 150 56
3 5 165 150
3 156 146 151
3 143 152 39
3 143 145 156
3 102 30 153
3 153 30 154
3 158 142 144
3 152 143 156
3 32 157 38
3 32 7 157
3 159 142 158
3 154 131 159
3 40 147 160
3 160 148 161
3 161 35 162
3 162 149 163
3 163 56 164
3 164 150 165
3 165 5 166
3 168 167 173
3 43 168 44
3 171 172 170
3 171 170 166
3 224 172 171
3 172 173 169
3 57 224 171
3 173 167 169
3 224 225 173
3 174 168 173
3 225 177 174
3 44 168 174
3 205 54 175
3 13 180 175
3 177 176 44
3 175 41 176
3 203 12 225
3 207 205 176
3 181 178 41
3 42 43 178
3 180 179 9
3 200 183 179
3 175 180 41
3 13 179 180
3 182 181 41
3 180 182 41
3 9 179 183
3 192 49 10
3 183 200 185
3 185 49 186
3 184 186 192
3 187 190 188
3 188 46 189
3 46 188 190
3 187 191 190
3 184 192 191
3 10 193 192
3 10 45 193
3 47 196 194
3 45 10 196
3 194 196 48
3 195 45 196
3 201 197 200
3 198 49 199
3 11 198 197
3 48 10 198
3 197 199 200
3 197 198 199
3 13 201 179
3 199 185 200
3 1 201 13
3 55 197 201
3 220 228 204
3 177 225 12
3 220 208 227
3 177 207 176
3 224 206 203
3 57 202 206
3 12 207 177
3 202 57 226
3 204 221 222
3 209 204 222
3 52 215 232
3 211 52 233
3 64 139 214
3 15 215 213
3 15 232 215
3 229 216 53
3 58 217 16
3 230 229 53
3 231 218 216
3 15 213 218
3 51 236 237
3 227 202 226
3 202 227 208
3 228 147 221
3 223 222 34
3 223 210 209
3 32 223 34
3 58 16 223
3 172 224 173
3 57 206 224
3 173 225 174
3 224 203 225
3 5 226 57
3 227 228 220
3 56 227 226
3 149 35 228
3 149 228 227
3 148 147 228
3 30 229 131
3 231 216 229
3 58 230 217
3 58 33 230
3 29 231 229
3 15 218 231
3 52 232 234
3 15 133 232
3 211 233 235
3 234 132 138
3 52 234 233
3 232 133 234
3 212 235 236
3 233 137 235
3 212 236 51
3 235 137 236
3 51 237 219
3 236 134 237
3 240 238 62
3 247 239 63
3 247 20 239
3 19 240 62
3 239 238 240
3 59 241 246
3 238 356 241
3 59 246 60
3 246 0 243
3 246 243 242
3 357 355 61
3 245 244 18
3 302 66 244
3 2 245 18
3 2 61 245
3 60 246 242
3 241 356 246
3 250 247 63
3 250 251 247
3 269 248 18
3 60 242 248
3 270 272 59
3 273 238 249
3 67 251 63
3 251 253 254
3 269 254 253
3 251 254 247
3 251 252 63
3 251 250 252
3 272 253 67
3 251 67 253
3 20 254 255
3 20 247 254
3 358 255 122
3 254 269 255
3 258 256 65
3 258 124 17
3 297 257 17
3 256 258 257
3 264 258 65
3 259 125 124
3 263 260 259
3 260 125 259
3 262 261 140
3 262 140 260
3 214 139 261
3 263 262 260
3 264 263 259
3 258 264 259
3 266 265 294
3 265 267 121
3 293 266 73
3 267 124 121
3 293 267 266
3 17 124 267
3 307 268 74
3 14 122 268
3 255 269 66
3 270 59 60
3 253 270 269
3 272 249 59
3 63 271 67
3 63 19 271
3 253 272 270
3 67 273 272
3 271 273 67
3 62 238 273
3 285 70 284
3 282 274 287
3 280 290 277
3 257 296 71
3 256 279 65
3 256 71 279
3 290 289 277
3 288 287 274
3 287 286 282
3 286 283 276
3 274 281 288
3 282 286 276
3 283 285 69
3 69 285 284
3 275 289 281
3 277 289 275
3 289 288 281
3 278 291 280
3 291 290 280
3 71 296 278
3 299 265 14
3 300 267 293
3 73 266 294
3 14 295 292
3 291 278 296
3 296 257 297
3 68 17 298
3 294 265 299
3 298 267 300
3 301 74 335
3 305 72 307
3 268 66 303
3 244 82 302
3 268 303 74
3 302 82 333
3 303 304 74
3 333 82 332
3 306 305 301
3 331 72 305
3 74 304 334
3 327 343 344
3 268 307 295
3 74 305 307
3 328 308 81
3 328 309 308
3 79 85 310
3 313 324 311
3 311 322 312
3 76 323 313
3 310 3 314
3 78 316 22
3 379 4 367
3 22 316 315
3 317 318 371
3 78 317 316
3 318 4 371
3 77 318 317
3 3 85 318
3 350 320 321
3 321 320 322
3 322 320 84
3 83 84 320
3 345 351 319
3 354 349 86
3 319 321 324
3 84 312 322
3 325 323 76
3 325 345 323
3 323 324 313
3 323 319 324
3 309 326 75
3 326 327 344
3 330 343 327
3 325 75 326
3 328 330 309
3 326 309 327
3 340 305 306
3 329 330 328
3 339 331 338
3 330 327 309
3 337 342 329
3 329 341 330
3 336 301 335
3 81 72 331
3 335 74 334
3 332 355 334
3 303 333 332
3 303 302 333
3 340 338 305
3 332 82 355
3 338 331 305
3 334 355 360
3 328 81 339
3 335 360 336
3 328 337 329
3 338 87 337
3 87 338 336
3 339 81 331
3 337 339 338
3 337 328 339
3 336 340 306
3 336 338 340
3 330 341 343
3 342 337 359
3 329 342 341
3 337 87 359
3 359 361 342
3 341 342 343
3 325 344 345
3 325 326 344
3 323 345 319
3 83 353 354
3 346 347 89
3 4 348 91
3 86 349 348
3 346 89 349
3 319 351 321
3 321 351 350
3 345 344 362
3 345 352 351
3 362 343 361
3 320 363 83
3 83 354 86
3 360 335 334
3 246 356 0
3 239 20 356
3 0 357 243
3 117 358 122
3 361 343 342
3 87 336 360
3 362 344 343
3 352 345 362
3 353 83 363
3 347 364 369
3 372 365 367
3 372 366 365
3 91 21 366
3 372 367 4
3 348 368 91
3 369 364 88
3 89 369 368
3 89 347 369
3 374 370 373
3 316 317 370
3 377 371 93
3 370 317 371
3 91 372 4
3 91 366 372
3 374 373 92
3 375 374 92
3 316 370 374
3 80 374 375
3 370 376 373
3 371 377 376
3 93 378 377
3 4 379 371
3 94 380 378
3 94 381 380

CELL_TYPES 556
5 5 5 5 5 5 5 5 5 5 5 5 5 5 5 5 5 5 5 5 5 5 5 5 5 5 5 5 5 5 5 5 5 5 5 5 5 5 5 5 5 5 5 5 5 5 5 5 5 5 5 5 5 5 5 5 5 5 5 5 5 5 5 5 5 5 5 5 5 5 5 5 5 5 5 5 5 5 5 5 5 5 5 5 5 5 5 5 5 5 5 5 5 5 5 5 5 5 5 5 5 5 5 5 5 5 5 5 5 5 5 5 5 5 5 5 5 5 5 5 5 5 5 5 5 5 5 5 5 5 5 5 5 5 5 5 5 5 5 5 5 5 5 5 5 5 5 5 5 5 5 5 5 5 5 5 5 5 5 5 5 5 5 5 5 5 5 5 5 5 5 5 5 5 5 5 5 5 5 5 5 5 5 5 5 5 5 5 5 5 5 5 5 5 5 5 5 5 5 5 5 5 5 5 5 5 5 5 5 5 5 5 5 5 5 5 5 5 5 5 5 5 5 5 5 5 5 5 5 5 5 5 5 5 5 5 5 5 5 5 5 5 5 5 5 5 5 5 5 5 5 5 5 5 5 5 5 5 5 5 5 5 5 5 5 5 5 5 5 5 5 5 5 5 5 5 5 5 5 5 5 5 5 5 5 5 5 5 5 5 5 5 5 5 5 5 5 5 5 5 5 5 5 5 5 5 5 5 5 5 5 5 5 5 5 5 5 5 5 5 5 5 5 5 5 5 5 5 5 5 5 5 5 5 5 5 5 5 5 5 5 5 5 5 5 5 5 5 5 5 5 5 5 5 5 5 5 5 5 5 5 5 5 5 5 5 5 5 5 5 5 5 5 5 5 5 5 5 5 5 5 5 5 5 5 5 5 5 5 5 5 5 5 5 5 5 5 5 5 5 5 5 5 5 5 5 5 5 5 5 5 5 5 5 5 5 5 5 5 5 5 5 5 5 5 5 5 5 5 5 5 5 5 5 5 5 5 5 5 5 5 5 5 5 5 5 5 5 5 5 5 5 5 5 5 5 5 5 5 5 5 5 5 5 5 5 5 5 5 5 5 5 5 5 5 5 5 5 5 5 5 5 5 5 5 5 5 5 5 5 5 5 5 5 5 5 5 5 5 5 5 5 5 5 5 5 5 5 5 5 5 5 5 5 5 5 5 5 5 5 5 5 5 5 5 5 5 5 5 5 5 5 5 5 5 5 5 5 5 5 5 5 5 5 5 5 5 5 5 5 5 5 5 5 5 5 

CELL_DATA 556
COLOR_SCALARS ColorSpace 1
0.584314
0.721569
0.884967
0.588235
0.852288
0.915033
0.709804
0.793464
0.909804
0.91634
0.849673
0.894118
0.903268
0.91634
0.913725
0.802614
0.915033
0.575163
0.815686
0.867974
0.849673
0.687582
0.822222
0.589542
0.76732
0.921569
0.796078
0.781699
0.743791
0.828758
0.732026
0.921569
0.88366
0.858824
0.878431
0.903268
0.845752
0.867974
0.882353
0.908497
0.887582
0.913725
0.864052
0.847059
0.908497
0.917647
0.815686
0.91634
0.847059
0.886275
0.921569
0.915033
0.900654
0.88366
0.881046
0.887582
0.911111
0.83268
0.840523
0.79085
0.90719
0.908497
0.908497
0.908497
0.844444
0.822222
0.904575
0.917647
0.738562
0.605229
0.849673
0.699346
0.886275
0.815686
0.65098
0.724183
0.627451
0.577778
0.773856
0.772549
0.759477
0.636601
0.698039
0.794771
0.864052
0.921569
0.755556
0.688889
0.877124
0.901961
0.831373
0.909804
0.816993
0.831373
0.85098
0.717647
0.900654
0.886275
0.691503
0.887582
0.768627
0.824837
0.677124
0.494118
0.721569
0.759477
0.703268
0.551634
0.735948
0.556863
0.737255
0.465359
0.737255
0.837908
0.585621
0.921569
0.921569
0.921569
0.921569
0.921569
0.921569
0.921569
0.921569
0.921569
0.921569
0.921569
0.742484
0.886275
0.921569
0.921569
0.921569
0.915033
0.921569
0.921569
0.921569
0.921569
0.921569
0.915033
0.760784
0.627451
0.648366
0.875817
0.601307
0.752941
0.592157
0.890196
0.728105
0.626144
0.759477
0.695425
0.781699
0.606536
0.541176
0.627451
0.72549
0.712418
0.769935
0.755556
0.718954
0.80915
0.552941
0.74902
0.688889
0.786928
0.576471
0.735948
0.900654
0.708497
0.742484
0.760784
0.594771
0.754248
0.614379
0.64183
0.616993
0.789542
0.681046
0.543791
0.815686
0.667974
0.824837
0.690196
0.848366
0.603922
0.644444
0.610458
0.913725
0.670588
0.895425
0.887582
0.830065
0.895425
0.875817
0.840523
0.91634
0.827451
0.905882
0.826144
0.835294
0.911111
0.905882
0.882353
0.871895
0.822222
0.908497
0.91634
0.904575
0.833987
0.900654
0.900654
0.888889
0.904575
0.91634
0.91634
0.915033
0.90719
0.911111
0.91634
0.91634
0.887582
0.91634
0.913725
0.91634
0.870588
0.913725
0.886275
0.891503
0.837908
0.865359
0.772549
0.870588
0.806536
0.823529
0.844444
0.866667
0.90719
0.785621
0.836601
0.839216
0.905882
0.858824
0.912418
0.917647
0.908497
0.905882
0.896732
0.792157
0.91634
0.911111
0.913725
0.908497
0.913725
0.915033
0.921569
0.921569
0.921569
0.921569
0.921569
0.921569
0.915033
0.915033
0.91634
0.911111
0.90719
0.917647
0.882353
0.881046
0.881046
0.877124
0.894118
0.87451
0.779085
0.90719
0.786928
0.890196
0.882353
0.891503
0.867974
0.844444
0.873203
0.85098
0.90719
0.764706
0.900654
0.915033
0.911111
0.89281
0.847059
0.91634
0.905882
0.908497
0.91634
0.904575
0.91634
0.91634
0.903268
0.781699
0.867974
0.857516
0.85098
0.915033
0.852288
0.909804
0.816993
0.802614
0.807843
0.857516
0.759477
0.828758
0.776471
0.843137
0.794771
0.866667
0.873203
0.903268
0.912418
0.904575
0.724183
0.911111
0.857516
0.745098
0.884967
0.658824
0.839216
0.696732
0.903268
0.779085
0.911111
0.797386
0.913725
0.730719
0.583007
0.793464
0.903268
0.704575
0.602614
0.695425
0.660131
0.763399
0.847059
0.735948
0.901961
0.856209
0.84183
0.794771
0.788235
0.688889
0.732026
0.76732
0.756863
0.700654
0.660131
0.68366
0.728105
0.572549
0.503268
0.503268
0.662745
0.51634
0.59085
0.534641
0.513725
0.623529
0.783007
0.704575
0.503268
0.873203
0.597386
0.766013
0.823529
0.881046
0.698039
0.866667
0.835294
0.847059
0.806536
0.847059
0.881046
0.90719
0.866667
0.754248
0.635294
0.867974
0.571242
0.741176
0.511111
0.833987
0.70719
0.583007
0.720261
0.530719
0.730719
0.603922
0.713725
0.551634
0.695425
0.705882
0.754248
0.921569
0.921569
0.921569
0.871895
0.913725
0.913725
0.921569
0.921569
0.921569
0.921569
0.921569
0.921569
0.921569
0.921569
0.921569
0.921569
0.921569
0.921569
0.921569
0.921569
0.718954
0.794771
0.867974
0.83268
0.921569
0.871895
0.815686
0.807843
0.794771
0.796078
0.901961
0.746405
0.875817
0.785621
0.785621
0.815686
0.698039
0.759477
0.891503
0.789542
0.826144
0.844444
0.891503
0.873203
0.884967
0.839216
0.91634
0.90719
0.895425
0.90719
0.884967
0.733333
0.884967
0.623529
0.831373
0.488889
0.777778
0.734641
0.745098
0.730719
0.67451
0.597386
0.849673
0.762092
0.837908
0.836601
0.87451
0.866667
0.890196
0.826144
0.912418
0.826144
0.833987
0.891503
0.816993
0.901961
0.713725
0.717647
0.818301
0.843137
0.784314
0.643137
0.74902
0.899346
0.781699
0.738562
0.665359
0.752941
0.776471
0.797386
0.871895
0.847059
0.8
0.80915
0.759477
0.875817
0.844444
0.826144
0.802614
0.785621
0.675817
0.738562
0.733333
0.88366
0.699346
0.895425
0.909804
0.789542
0.816993
0.815686
0.823529
0.830065
0.913725
0.375163
0.584314
0.913725
0.843137
0.90719
0.837908
0.913725
0.912418
0.667974
0.670588
0.792157
0.862745
0.912418
0.905882
0.873203
0.900654
0.864052
0.836601
0.913725
0.830065
0.887582
0.8
0.8
0.741176
0.611765
0.379085
0.887582
0.695425
0.879739
0.69281
0.649673
0.76732
0.532026
0.431373
0.619608
0.87451
0.87451
0.656209
0.87451
0.739869
0.76732
0.921569
0.579085
0.921569
0.921569
