# vtk DataFile Version 1.0
Unstructured Grid Example
ASCII

DATASET UNSTRUCTURED_GRID
POINTS 176 float
47 599 0
50 595 0
45 593 0
54 590 0
45 587 0
58 586 0
45 581 0
63 581 0
45 576 0
69 574 0
78 568 0
45 566 0
86 561 0
46 557 0
93 557 0
100 552 0
46 550 0
113 544 0
47 538 0
126 537 0
137 532 0
48 531 0
148 528 0
49 522 0
167 522 0
180 519 0
191 517 0
210 514 0
50 513 0
227 512 0
243 510 0
261 507 0
279 505 0
294 503 0
315 499 0
51 498 0
328 496 0
343 493 0
358 490 0
53 488 0
373 486 0
394 480 0
54 478 0
411 473 0
426 467 0
56 464 0
446 458 0
58 456 0
466 448 0
60 447 0
482 439 0
62 435 0
498 428 0
65 423 0
68 412 0
520 411 0
71 399 0
535 394 0
75 389 0
79 376 0
547 375 0
84 363 0
91 344 0
561 340 0
101 323 0
567 315 0
110 307 0
568 295 0
125 284 0
135 272 0
146 260 0
568 260 0
168 242 0
566 242 0
184 229 0
564 228 0
218 212 0
559 209 0
238 203 0
557 200 0
257 196 0
555 193 0
276 190 0
552 186 0
299 184 0
318 180 0
551 180 0
337 176 0
357 173 0
548 173 0
552 171 0
380 169 0
557 168 0
401 167 0
406 167 0
562 166 0
419 165 0
444 164 0
566 163 0
465 162 0
480 162 0
499 161 0
508 161 0
516 160 0
572 160 0
525 159 0
530 156 0
579 156 0
536 153 0
584 153 0
542 150 0
591 150 0
547 149 0
596 147 0
552 146 0
601 145 0
558 143 0
606 142 0
565 139 0
613 138 0
574 135 0
620 134 0
625 132 0
579 131 0
584 129 0
629 129 0
588 126 0
636 125 0
593 123 0
641 123 0
598 121 0
647 120 0
606 116 0
653 116 0
610 113 0
659 112 0
614 110 0
664 108 0
620 106 0
669 105 0
625 103 0
675 102 0
629 99 0
681 98 0
636 94 0
690 91 0
640 90 0
644 86 0
698 85 0
649 83 0
704 81 0
652 78 0
710 76 0
715 71 0
660 70 0
721 66 0
727 62 0
667 60 0
731 57 0
672 55 0
739 50 0
677 48 0
744 45 0
682 43 0
744 37 0
689 34 0
740 33 0
694 29 0
736 29 0
732 26 0
698 25 0
727 21 0
702 20 0
719 18 0
708 17 0
714 17 0
CELLS 176 352
1 0
1 1
1 2
1 3
1 4
1 5
1 6
1 7
1 8
1 9
1 10
1 11
1 12
1 13
1 14
1 15
1 16
1 17
1 18
1 19
1 20
1 21
1 22
1 23
1 24
1 25
1 26
1 27
1 28
1 29
1 30
1 31
1 32
1 33
1 34
1 35
1 36
1 37
1 38
1 39
1 40
1 41
1 42
1 43
1 44
1 45
1 46
1 47
1 48
1 49
1 50
1 51
1 52
1 53
1 54
1 55
1 56
1 57
1 58
1 59
1 60
1 61
1 62
1 63
1 64
1 65
1 66
1 67
1 68
1 69
1 70
1 71
1 72
1 73
1 74
1 75
1 76
1 77
1 78
1 79
1 80
1 81
1 82
1 83
1 84
1 85
1 86
1 87
1 88
1 89
1 90
1 91
1 92
1 93
1 94
1 95
1 96
1 97
1 98
1 99
1 100
1 101
1 102
1 103
1 104
1 105
1 106
1 107
1 108
1 109
1 110
1 111
1 112
1 113
1 114
1 115
1 116
1 117
1 118
1 119
1 120
1 121
1 122
1 123
1 124
1 125
1 126
1 127
1 128
1 129
1 130
1 131
1 132
1 133
1 134
1 135
1 136
1 137
1 138
1 139
1 140
1 141
1 142
1 143
1 144
1 145
1 146
1 147
1 148
1 149
1 150
1 151
1 152
1 153
1 154
1 155
1 156
1 157
1 158
1 159
1 160
1 161
1 162
1 163
1 164
1 165
1 166
1 167
1 168
1 169
1 170
1 171
1 172
1 173
1 174
1 175
CELL_TYPES 176
1 1 1 1 1 1 1 1 1 1 1 1 1 1 1 1 1 1 1 1 1 1 1 1 1 1 1 1 1 1 1 1 1 1 1 1 1 1 1 1 1 1 1 1 1 1 1 1 1 1 1 1 1 1 1 1 1 1 1 1 1 1 1 1 1 1 1 1 1 1 1 1 1 1 1 1 1 1 1 1 1 1 1 1 1 1 1 1 1 1 1 1 1 1 1 1 1 1 1 1 1 1 1 1 1 1 1 1 1 1 1 1 1 1 1 1 1 1 1 1 1 1 1 1 1 1 1 1 1 1 1 1 1 1 1 1 1 1 1 1 1 1 1 1 1 1 1 1 1 1 1 1 1 1 1 1 1 1 1 1 1 1 1 1 1 1 1 1 1 1 1 1 1 1 1 1 
CELL_DATA 176
COLOR_SCALARS lut 1
0.0791826
0.0790892
0.078957
0.0873108
0.0848833
0.102735
0.0989241
0.126777
0.114019
0.158516
0.199539
0.146341
0.235934
0.175991
0.26585
0.294296
0.198758
0.335185
0.232032
0.363312
0.383276
0.243594
0.399732
0.251526
0.422349
0.434428
0.443443
0.45659
0.257276
0.466078
0.47481
0.484431
0.49422
0.503826
0.51901
0.265032
0.529893
0.543482
0.55881
0.270688
0.575757
0.604294
0.276872
0.631293
0.658743
0.28686
0.700727
0.293307
0.748138
0.300916
0.792596
0.311743
0.844595
0.323863
0.336061
0.93131
0.35157
1
0.364966
0.383939
0.966385
0.404864
0.439428
0.89227
0.484729
0.866101
0.526606
0.848988
0.599071
0.644673
0.698667
0.663727
0.816985
0.533073
0.901814
0.433607
0.945187
0.299909
0.904058
0.237759
0.871958
0.190925
0.844846
0.147709
0.816717
0.797958
0.117584
0.781606
0.767319
0.102582
0.0997975
0.753812
0.108961
0.743512
0.741718
0.120765
0.735461
0.698258
0.126324
0.573521
0.472852
0.341972
0.279719
0.228286
0.131144
0.178935
0.158903
0.132578
0.143634
0.132313
0.136361
0.133689
0.131106
0.133528
0.131679
0.135565
0.13184
0.136097
0.133006
0.1378
0.131749
0.140426
0.144155
0.13384
0.132545
0.145488
0.134273
0.149729
0.13541
0.153987
0.135105
0.158825
0.138151
0.162612
0.14067
0.16713
0.143457
0.171038
0.14712
0.176421
0.149845
0.184419
0.154037
0.191876
0.158789
0.202763
0.163465
0.16847
0.213483
0.172121
0.221049
0.179769
0.226263
0.227167
0.192136
0.22035
0.201746
0.207399
0.177883
0.213287
0.129666
0.218675
0.10555
0.216576
0.103382
0.194237
0.114599
0.172051
0.126064
0.130211
0.152182
0.124011
0.130325
0.111916
0.113103
0.108887
