# vtk DataFile Version 1.0
Unstructured Grid Example
ASCII

DATASET UNSTRUCTURED_GRID
POINTS 382 float
0 611 0
4 611 0
10 611 0
16 611 0
21 611 0
29 611 0
37 611 0
41 611 0
48 611 0
54 611 0
60 611 0
67 611 0
76 611 0
82 611 0
89 611 0
96 611 0
103 611 0
115 611 0
125 611 0
141 611 0
153 611 0
165 611 0
176 611 0
191 611 0
203 611 0
214 611 0
225 611 0
245 611 0
261 611 0
275 611 0
293 611 0
306 611 0
321 611 0
341 611 0
364 611 0
378 611 0
401 611 0
426 611 0
441 611 0
457 611 0
478 611 0
498 611 0
517 611 0
537 611 0
564 611 0
602 611 0
626 611 0
654 611 0
680 611 0
694 611 0
705 611 0
715 611 0
723 611 0
736 611 0
744 611 0
753 611 0
759 611 0
762 609 0
0 607 0
762 605 0
0 600 0
47 599 0
762 598 0
50 595 0
0 594 0
45 593 0
54 590 0
762 590 0
0 588 0
45 587 0
58 586 0
0 582 0
45 581 0
63 581 0
762 578 0
45 576 0
0 574 0
69 574 0
762 570 0
78 568 0
45 566 0
0 561 0
86 561 0
46 557 0
93 557 0
0 554 0
100 552 0
762 552 0
46 550 0
0 544 0
113 544 0
762 539 0
47 538 0
0 537 0
126 537 0
137 532 0
48 531 0
0 530 0
148 528 0
49 522 0
167 522 0
0 519 0
180 519 0
191 517 0
210 514 0
50 513 0
762 513 0
227 512 0
0 510 0
243 510 0
261 507 0
279 505 0
294 503 0
0 499 0
315 499 0
51 498 0
328 496 0
343 493 0
358 490 0
53 488 0
0 486 0
373 486 0
762 483 0
394 480 0
0 478 0
54 478 0
411 473 0
0 467 0
426 467 0
56 464 0
0 458 0
446 458 0
762 457 0
58 456 0
466 448 0
0 447 0
60 447 0
482 439 0
0 435 0
62 435 0
762 433 0
498 428 0
65 423 0
0 420 0
0 412 0
68 412 0
520 411 0
762 407 0
0 399 0
71 399 0
535 394 0
0 389 0
75 389 0
762 383 0
0 378 0
79 376 0
547 375 0
84 363 0
0 362 0
762 354 0
0 350 0
91 344 0
561 340 0
0 337 0
762 333 0
0 325 0
101 323 0
567 315 0
0 310 0
762 308 0
110 307 0
0 298 0
568 295 0
762 286 0
125 284 0
0 283 0
135 272 0
0 269 0
762 264 0
146 260 0
568 260 0
0 256 0
762 245 0
0 242 0
168 242 0
566 242 0
184 229 0
564 228 0
762 213 0
0 212 0
218 212 0
559 209 0
238 203 0
557 200 0
257 196 0
0 193 0
555 193 0
276 190 0
552 186 0
762 186 0
299 184 0
318 180 0
551 180 0
337 176 0
357 173 0
548 173 0
0 172 0
552 171 0
380 169 0
557 168 0
401 167 0
406 167 0
762 167 0
562 166 0
419 165 0
444 164 0
566 163 0
465 162 0
480 162 0
499 161 0
508 161 0
516 160 0
572 160 0
525 159 0
530 156 0
579 156 0
762 155 0
536 153 0
584 153 0
0 151 0
542 150 0
591 150 0
547 149 0
596 147 0
552 146 0
601 145 0
558 143 0
606 142 0
565 139 0
613 138 0
574 135 0
762 135 0
620 134 0
625 132 0
0 131 0
579 131 0
584 129 0
629 129 0
588 126 0
636 125 0
762 124 0
593 123 0
641 123 0
598 121 0
647 120 0
606 116 0
653 116 0
610 113 0
762 113 0
659 112 0
614 110 0
664 108 0
0 107 0
620 106 0
669 105 0
625 103 0
762 103 0
675 102 0
629 99 0
681 98 0
762 95 0
636 94 0
690 91 0
640 90 0
762 88 0
644 86 0
698 85 0
0 84 0
649 83 0
704 81 0
762 81 0
652 78 0
710 76 0
762 75 0
715 71 0
660 70 0
0 69 0
762 67 0
721 66 0
727 62 0
667 60 0
762 60 0
0 58 0
731 57 0
672 55 0
762 52 0
739 50 0
0 48 0
677 48 0
762 46 0
744 45 0
682 43 0
762 41 0
0 40 0
744 37 0
762 37 0
689 34 0
740 33 0
762 32 0
0 31 0
694 29 0
736 29 0
732 26 0
762 26 0
698 25 0
727 21 0
762 21 0
702 20 0
0 19 0
719 18 0
708 17 0
714 17 0
762 16 0
0 12 0
762 10 0
0 8 0
762 6 0
0 4 0
4 1 0
12 1 0
18 1 0
24 1 0
37 1 0
46 1 0
56 1 0
74 1 0
92 1 0
112 1 0
140 1 0
161 1 0
195 1 0
221 1 0
246 1 0
269 1 0
295 1 0
320 1 0
339 1 0
365 1 0
386 1 0
419 1 0
443 1 0
468 1 0
494 1 0
518 1 0
533 1 0
549 1 0
563 1 0
580 1 0
596 1 0
608 1 0
619 1 0
629 1 0
640 1 0
650 1 0
658 1 0
667 1 0
675 1 0
681 1 0
687 1 0
694 1 0
700 1 0
704 1 0
711 1 0
715 1 0
721 1 0
725 1 0
729 1 0
738 1 0
743 1 0
749 1 0
756 1 0
762 1 0
CELLS 382 764
1 0
1 1
1 2
1 3
1 4
1 5
1 6
1 7
1 8
1 9
1 10
1 11
1 12
1 13
1 14
1 15
1 16
1 17
1 18
1 19
1 20
1 21
1 22
1 23
1 24
1 25
1 26
1 27
1 28
1 29
1 30
1 31
1 32
1 33
1 34
1 35
1 36
1 37
1 38
1 39
1 40
1 41
1 42
1 43
1 44
1 45
1 46
1 47
1 48
1 49
1 50
1 51
1 52
1 53
1 54
1 55
1 56
1 57
1 58
1 59
1 60
1 61
1 62
1 63
1 64
1 65
1 66
1 67
1 68
1 69
1 70
1 71
1 72
1 73
1 74
1 75
1 76
1 77
1 78
1 79
1 80
1 81
1 82
1 83
1 84
1 85
1 86
1 87
1 88
1 89
1 90
1 91
1 92
1 93
1 94
1 95
1 96
1 97
1 98
1 99
1 100
1 101
1 102
1 103
1 104
1 105
1 106
1 107
1 108
1 109
1 110
1 111
1 112
1 113
1 114
1 115
1 116
1 117
1 118
1 119
1 120
1 121
1 122
1 123
1 124
1 125
1 126
1 127
1 128
1 129
1 130
1 131
1 132
1 133
1 134
1 135
1 136
1 137
1 138
1 139
1 140
1 141
1 142
1 143
1 144
1 145
1 146
1 147
1 148
1 149
1 150
1 151
1 152
1 153
1 154
1 155
1 156
1 157
1 158
1 159
1 160
1 161
1 162
1 163
1 164
1 165
1 166
1 167
1 168
1 169
1 170
1 171
1 172
1 173
1 174
1 175
1 176
1 177
1 178
1 179
1 180
1 181
1 182
1 183
1 184
1 185
1 186
1 187
1 188
1 189
1 190
1 191
1 192
1 193
1 194
1 195
1 196
1 197
1 198
1 199
1 200
1 201
1 202
1 203
1 204
1 205
1 206
1 207
1 208
1 209
1 210
1 211
1 212
1 213
1 214
1 215
1 216
1 217
1 218
1 219
1 220
1 221
1 222
1 223
1 224
1 225
1 226
1 227
1 228
1 229
1 230
1 231
1 232
1 233
1 234
1 235
1 236
1 237
1 238
1 239
1 240
1 241
1 242
1 243
1 244
1 245
1 246
1 247
1 248
1 249
1 250
1 251
1 252
1 253
1 254
1 255
1 256
1 257
1 258
1 259
1 260
1 261
1 262
1 263
1 264
1 265
1 266
1 267
1 268
1 269
1 270
1 271
1 272
1 273
1 274
1 275
1 276
1 277
1 278
1 279
1 280
1 281
1 282
1 283
1 284
1 285
1 286
1 287
1 288
1 289
1 290
1 291
1 292
1 293
1 294
1 295
1 296
1 297
1 298
1 299
1 300
1 301
1 302
1 303
1 304
1 305
1 306
1 307
1 308
1 309
1 310
1 311
1 312
1 313
1 314
1 315
1 316
1 317
1 318
1 319
1 320
1 321
1 322
1 323
1 324
1 325
1 326
1 327
1 328
1 329
1 330
1 331
1 332
1 333
1 334
1 335
1 336
1 337
1 338
1 339
1 340
1 341
1 342
1 343
1 344
1 345
1 346
1 347
1 348
1 349
1 350
1 351
1 352
1 353
1 354
1 355
1 356
1 357
1 358
1 359
1 360
1 361
1 362
1 363
1 364
1 365
1 366
1 367
1 368
1 369
1 370
1 371
1 372
1 373
1 374
1 375
1 376
1 377
1 378
1 379
1 380
1 381
CELL_TYPES 382
1 1 1 1 1 1 1 1 1 1 1 1 1 1 1 1 1 1 1 1 1 1 1 1 1 1 1 1 1 1 1 1 1 1 1 1 1 1 1 1 1 1 1 1 1 1 1 1 1 1 1 1 1 1 1 1 1 1 1 1 1 1 1 1 1 1 1 1 1 1 1 1 1 1 1 1 1 1 1 1 1 1 1 1 1 1 1 1 1 1 1 1 1 1 1 1 1 1 1 1 1 1 1 1 1 1 1 1 1 1 1 1 1 1 1 1 1 1 1 1 1 1 1 1 1 1 1 1 1 1 1 1 1 1 1 1 1 1 1 1 1 1 1 1 1 1 1 1 1 1 1 1 1 1 1 1 1 1 1 1 1 1 1 1 1 1 1 1 1 1 1 1 1 1 1 1 1 1 1 1 1 1 1 1 1 1 1 1 1 1 1 1 1 1 1 1 1 1 1 1 1 1 1 1 1 1 1 1 1 1 1 1 1 1 1 1 1 1 1 1 1 1 1 1 1 1 1 1 1 1 1 1 1 1 1 1 1 1 1 1 1 1 1 1 1 1 1 1 1 1 1 1 1 1 1 1 1 1 1 1 1 1 1 1 1 1 1 1 1 1 1 1 1 1 1 1 1 1 1 1 1 1 1 1 1 1 1 1 1 1 1 1 1 1 1 1 1 1 1 1 1 1 1 1 1 1 1 1 1 1 1 1 1 1 1 1 1 1 1 1 1 1 1 1 1 1 1 1 1 1 1 1 1 1 1 1 1 1 1 1 1 1 1 1 1 1 1 1 1 1 1 1 1 1 1 1 1 1 1 1 1 1 1 1 1 1 1 1 1 1 1 1 1 1 1 1 1 1 1 1 1 1 
CELL_DATA 382
COLOR_SCALARS lut 1
0.0473115
0.0583665
0.0811088
0.103665
0.114594
0.106438
0.0825501
0.0732317
0.0693576
0.0795718
0.0978397
0.123084
0.15533
0.175265
0.197089
0.21734
0.236463
0.267797
0.292187
0.327081
0.349871
0.370365
0.386279
0.404184
0.414975
0.422979
0.43011
0.441576
0.450024
0.457595
0.467469
0.475569
0.48541
0.499916
0.519417
0.533069
0.557291
0.587777
0.608465
0.631885
0.66575
0.70179
0.73797
0.77836
0.839332
0.916096
0.822012
0.658385
0.505556
0.423263
0.358605
0.299822
0.252792
0.17645
0.130074
0.0817237
0.0568528
0.0536906
0.0591907
0.0681406
0.0899025
0.0791826
0.10226
0.0790892
0.120988
0.078957
0.0873108
0.147319
0.151778
0.0848833
0.102735
0.178334
0.0989241
0.126777
0.217525
0.114019
0.199697
0.158516
0.26455
0.199539
0.146341
0.20926
0.235934
0.175991
0.26585
0.210965
0.294296
0.370361
0.198758
0.214396
0.335185
0.446776
0.232032
0.217511
0.363312
0.383276
0.243594
0.219569
0.399732
0.251526
0.422349
0.22334
0.434428
0.443443
0.45659
0.257276
0.599607
0.466078
0.227668
0.47481
0.484431
0.49422
0.503826
0.233084
0.51901
0.265032
0.529893
0.543482
0.55881
0.270688
0.239476
0.575757
0.775893
0.604294
0.244134
0.276872
0.631293
0.250948
0.658743
0.28686
0.257027
0.700727
0.921663
0.293307
0.748138
0.264882
0.300916
0.792596
0.274469
0.311743
0.949067
0.844595
0.323863
0.287863
0.295587
0.336061
0.93131
0.909347
0.308875
0.35157
1
0.319974
0.364966
0.87891
0.333069
0.383939
0.966385
0.404864
0.353747
0.850858
0.370161
0.439428
0.89227
0.388982
0.837495
0.408124
0.484729
0.866101
0.433789
0.828456
0.526606
0.455441
0.848988
0.827471
0.599071
0.484059
0.644673
0.512921
0.826623
0.698667
0.663727
0.541583
0.807674
0.574038
0.816985
0.533073
0.901814
0.433607
0.686384
0.650157
0.945187
0.299909
0.904058
0.237759
0.871958
0.702925
0.190925
0.844846
0.147709
0.579608
0.816717
0.797958
0.117584
0.781606
0.767319
0.102582
0.766441
0.0997975
0.753812
0.108961
0.743512
0.741718
0.506008
0.120765
0.735461
0.698258
0.126324
0.573521
0.472852
0.341972
0.279719
0.228286
0.131144
0.178935
0.158903
0.132578
0.460783
0.143634
0.132313
0.823844
0.136361
0.133689
0.131106
0.133528
0.131679
0.135565
0.13184
0.136097
0.133006
0.1378
0.131749
0.38633
0.140426
0.144155
0.783097
0.13384
0.132545
0.145488
0.134273
0.149729
0.345451
0.13541
0.153987
0.135105
0.158825
0.138151
0.162612
0.14067
0.304774
0.16713
0.143457
0.171038
0.646579
0.14712
0.176421
0.149845
0.268671
0.184419
0.154037
0.191876
0.24067
0.158789
0.202763
0.163465
0.21626
0.16847
0.213483
0.511434
0.172121
0.221049
0.191939
0.179769
0.226263
0.171191
0.227167
0.192136
0.423263
0.144357
0.22035
0.201746
0.207399
0.121971
0.358605
0.177883
0.213287
0.100328
0.129666
0.299822
0.218675
0.090044
0.10555
0.216576
0.0870826
0.252792
0.103382
0.0882749
0.194237
0.114599
0.0931159
0.199904
0.172051
0.126064
0.130211
0.0998405
0.152182
0.124011
0.100581
0.130325
0.130074
0.111916
0.113103
0.108887
0.0922755
0.0917225
0.0729273
0.0724458
0.0590168
0.0568527
0.0603234
0.0969342
0.130074
0.164761
0.241035
0.293944
0.352727
0.458532
0.564338
0.681894
0.844673
0.92139
0.88233
0.846925
0.817314
0.793989
0.770373
0.751154
0.738688
0.724463
0.715107
0.703516
0.696377
0.693172
0.67806
0.636098
0.604857
0.569212
0.535682
0.491498
0.444502
0.404079
0.364935
0.329602
0.28966
0.25348
0.225203
0.193377
0.165695
0.145681
0.126993
0.107579
0.0939829
0.0872244
0.0808172
0.0803963
0.0837994
0.0882242
0.0935341
0.103022
0.101031
0.0870303
0.0624426
0.0454483
