# vtk DataFile Version 1.0
Unstructured Grid Example
ASCII

DATASET UNSTRUCTURED_GRID
POINTS 1582 float
66 373 0
50 471 0
338 506 0
606 142 0
614 124 0
718 4 0
101 336 0
101 283 0
234 274 0
407 400 0
4 567 0
45 587 0
67 611 0
231 551 0
133 505 0
735 385 0
735 451 0
561 478 0
762 407 0
684 245 0
668 154 0
705 53 0
721 1 0
753 44 0
51 24 0
12 20 0
34 267 0
63 16 0
113 83 0
363 142 0
380 169 0
316 203 0
207 257 0
103 350 0
110 422 0
132 342 0
320 268 0
75 389 0
79 376 0
37 330 0
12 334 0
0 378 0
50 513 0
54 478 0
8 493 0
90 530 0
28 563 0
31 584 0
48 611 0
78 587 0
39 581 0
129 551 0
148 600 0
261 611 0
341 611 0
285 574 0
330 542 0
91 547 0
108 533 0
146 507 0
243 510 0
552 171 0
598 169 0
566 163 0
564 176 0
465 273 0
441 611 0
554 253 0
614 244 0
536 184 0
735 583 0
757 606 0
652 334 0
752 570 0
762 308 0
650 179 0
651 164 0
762 167 0
762 155 0
610 128 0
649 130 0
594 103 0
588 126 0
584 153 0
506 134 0
408 129 0
570 121 0
585 121 0
617 100 0
602 100 0
588 97 0
621 91 0
622 73 0
629 99 0
645 103 0
696 77 0
720 55 0
659 35 0
10 45 0
0 40 0
0 31 0
0 12 0
0 193 0
0 256 0
17 270 0
3 227 0
14 119 0
40 284 0
125 284 0
58 269 0
135 196 0
69 57 0
34 56 0
24 45 0
24 1 0
136 34 0
301 107 0
187 80 0
254 35 0
228 53 0
414 36 0
443 1 0
444 37 0
410 62 0
363 91 0
192 146 0
316 136 0
356 282 0
276 190 0
218 212 0
168 242 0
180 186 0
155 178 0
139 230 0
163 270 0
214 322 0
194 357 0
169 356 0
127 358 0
287 285 0
294 333 0
419 422 0
303 406 0
234 388 0
337 461 0
411 473 0
297 457 0
315 499 0
285 489 0
257 446 0
168 451 0
159 476 0
218 487 0
72 451 0
64 479 0
83 413 0
68 412 0
114 382 0
110 307 0
84 363 0
88 385 0
86 400 0
51 426 0
26 341 0
0 362 0
26 422 0
10 449 0
32 462 0
49 459 0
51 498 0
45 483 0
29 475 0
0 499 0
0 537 0
6 524 0
8 501 0
45 505 0
65 519 0
41 526 0
36 519 0
27 525 0
72 569 0
74 538 0
77 557 0
45 566 0
39 554 0
31 554 0
19 542 0
29 543 0
13 548 0
7 592 0
25 582 0
6 585 0
15 589 0
10 598 0
0 607 0
16 611 0
21 611 0
17 606 0
40 588 0
40 593 0
57 605 0
55 597 0
45 593 0
66 588 0
58 586 0
34 572 0
46 571 0
50 584 0
104 584 0
160 582 0
134 579 0
174 589 0
101 603 0
92 604 0
125 611 0
135 599 0
164 598 0
176 611 0
378 611 0
275 611 0
231 595 0
378 593 0
340 593 0
204 586 0
269 588 0
349 578 0
314 556 0
354 551 0
302 576 0
259 546 0
216 566 0
93 557 0
100 552 0
137 532 0
173 551 0
258 531 0
148 528 0
122 522 0
167 522 0
245 523 0
261 507 0
273 518 0
407 521 0
286 516 0
294 503 0
536 140 0
535 147 0
504 152 0
463 141 0
570 138 0
584 137 0
567 158 0
560 156 0
552 146 0
552 162 0
566 196 0
555 193 0
548 191 0
539 169 0
525 159 0
516 160 0
465 162 0
511 185 0
517 272 0
494 196 0
466 216 0
489 298 0
446 458 0
448 476 0
481 534 0
466 448 0
486 365 0
537 611 0
517 611 0
568 295 0
595 277 0
595 253 0
566 242 0
553 239 0
522 235 0
545 200 0
569 218 0
705 319 0
637 299 0
708 379 0
610 464 0
693 479 0
691 599 0
714 598 0
723 588 0
715 574 0
762 598 0
736 611 0
752 559 0
762 590 0
762 433 0
754 528 0
738 357 0
762 383 0
762 354 0
679 296 0
679 164 0
719 219 0
676 213 0
640 231 0
617 224 0
600 181 0
604 191 0
627 209 0
624 158 0
614 157 0
611 143 0
613 138 0
614 148 0
624 138 0
629 142 0
660 145 0
646 137 0
638 136 0
673 111 0
671 120 0
679 134 0
691 98 0
710 97 0
710 76 0
667 75 0
673 79 0
664 87 0
636 94 0
640 90 0
634 82 0
642 95 0
639 103 0
657 100 0
640 115 0
636 125 0
633 107 0
625 132 0
627 123 0
614 131 0
598 121 0
584 129 0
568 132 0
558 125 0
577 116 0
593 123 0
606 116 0
596 110 0
569 90 0
582 107 0
607 72 0
609 94 0
609 103 0
625 113 0
628 92 0
631 74 0
689 42 0
692 18 0
697 39 0
683 68 0
648 61 0
637 48 0
606 46 0
675 24 0
678 37 0
608 1 0
468 1 0
580 1 0
667 1 0
675 1 0
683 11 0
686 16 0
698 13 0
704 12 0
688 7 0
727 9 0
738 1 0
738 10 0
733 13 0
706 62 0
704 69 0
731 57 0
708 45 0
730 33 0
748 55 0
744 69 0
749 50 0
758 47 0
757 41 0
758 34 0
741 41 0
744 12 0
746 4 0
762 10 0
7 8 0
0 4 0
4 5 0
4 1 0
12 1 0
18 1 0
26 7 0
15 5 0
8 3 0
15 11 0
26 28 0
22 19 0
28 14 0
10 27 0
7 14 0
0 8 0
0 19 0
2 25 0
0 69 0
0 58 0
0 48 0
0 84 0
0 151 0
0 172 0
0 212 0
0 131 0
0 107 0
14 93 0
19 218 0
20 199 0
28 138 0
32 98 0
27 71 0
12 73 0
12 59 0
14 37 0
36 40 0
56 95 0
80 84 0
49 67 0
58 122 0
36 169 0
40 219 0
77 203 0
51 192 0
58 152 0
93 175 0
155 212 0
111 208 0
184 229 0
162 130 0
136 152 0
93 120 0
137 60 0
147 98 0
94 46 0
112 21 0
188 25 0
165 39 0
62 36 0
49 49 0
38 28 0
76 18 0
92 24 0
48 12 0
37 9 0
37 1 0
46 1 0
56 1 0
92 1 0
74 1 0
112 1 0
140 1 0
161 1 0
246 1 0
269 1 0
221 1 0
195 1 0
199 49 0
199 113 0
240 99 0
214 26 0
236 20 0
276 54 0
325 83 0
294 78 0
308 47 0
323 26 0
294 27 0
273 20 0
295 1 0
320 1 0
344 25 0
339 1 0
365 1 0
373 24 0
386 1 0
419 1 0
467 24 0
431 15 0
399 18 0
436 66 0
469 48 0
468 113 0
452 88 0
429 101 0
396 89 0
391 38 0
333 48 0
376 60 0
380 120 0
401 167 0
357 173 0
383 148 0
406 167 0
432 132 0
480 162 0
457 176 0
444 164 0
419 165 0
435 186 0
479 199 0
481 182 0
454 197 0
423 208 0
411 187 0
378 189 0
400 207 0
373 209 0
282 210 0
355 227 0
349 199 0
299 184 0
337 176 0
339 122 0
335 156 0
314 160 0
318 180 0
279 159 0
281 131 0
251 135 0
225 148 0
254 169 0
215 175 0
257 196 0
261 216 0
238 203 0
193 208 0
105 260 0
113 236 0
126 257 0
115 294 0
96 305 0
101 323 0
115 338 0
119 323 0
127 309 0
166 303 0
138 327 0
163 332 0
151 315 0
150 284 0
143 299 0
135 272 0
146 260 0
183 269 0
238 234 0
206 231 0
271 247 0
314 232 0
388 233 0
441 235 0
471 238 0
423 262 0
389 272 0
333 316 0
417 304 0
470 336 0
437 348 0
376 321 0
329 355 0
255 319 0
207 291 0
187 321 0
230 351 0
368 374 0
345 417 0
340 386 0
303 378 0
405 360 0
458 376 0
453 402 0
428 381 0
370 408 0
361 439 0
475 417 0
391 436 0
446 437 0
339 440 0
320 427 0
297 432 0
278 447 0
315 449 0
191 428 0
235 445 0
217 422 0
262 421 0
198 392 0
269 371 0
169 381 0
149 396 0
167 420 0
133 380 0
148 363 0
112 362 0
100 378 0
125 397 0
109 399 0
130 414 0
147 433 0
125 431 0
105 445 0
86 442 0
90 431 0
71 440 0
72 431 0
60 447 0
51 449 0
45 439 0
55 440 0
62 435 0
61 403 0
57 418 0
50 409 0
40 418 0
62 393 0
65 423 0
80 425 0
95 417 0
71 399 0
80 349 0
95 360 0
89 373 0
91 344 0
87 327 0
84 254 0
73 289 0
78 308 0
72 335 0
58 318 0
69 231 0
43 249 0
52 300 0
50 342 0
53 368 0
70 356 0
56 382 0
49 392 0
40 379 0
24 359 0
12 364 0
40 362 0
12 347 0
30 315 0
25 252 0
16 237 0
16 296 0
16 322 0
0 283 0
0 269 0
0 242 0
0 298 0
0 310 0
12 309 0
0 325 0
0 350 0
0 337 0
11 378 0
0 399 0
0 389 0
10 398 0
13 388 0
25 377 0
37 404 0
27 394 0
19 411 0
9 418 0
35 430 0
31 441 0
19 431 0
16 441 0
0 447 0
9 433 0
0 412 0
0 420 0
0 435 0
7 474 0
10 458 0
0 467 0
0 458 0
0 478 0
0 486 0
0 510 0
9 509 0
9 484 0
34 508 0
20 510 0
20 500 0
31 491 0
36 482 0
17 490 0
14 467 0
19 475 0
22 454 0
56 464 0
39 454 0
42 467 0
58 456 0
67 459 0
77 461 0
75 478 0
69 468 0
60 471 0
61 489 0
72 489 0
81 504 0
70 511 0
69 500 0
57 507 0
60 497 0
53 488 0
40 495 0
42 513 0
51 545 0
49 522 0
48 531 0
47 538 0
56 519 0
77 528 0
68 545 0
60 529 0
59 540 0
70 560 0
78 549 0
69 553 0
63 557 0
58 562 0
60 548 0
56 555 0
46 557 0
49 562 0
22 556 0
42 561 0
35 564 0
46 550 0
40 546 0
39 534 0
28 515 0
19 520 0
23 533 0
11 532 0
9 517 0
0 519 0
0 530 0
8 541 0
0 544 0
5 549 0
9 559 0
0 554 0
0 561 0
0 582 0
0 574 0
8 574 0
16 572 0
19 564 0
27 570 0
40 572 0
31 577 0
18 580 0
34 594 0
35 589 0
38 597 0
33 599 0
28 595 0
24 590 0
0 588 0
0 594 0
18 598 0
22 603 0
0 600 0
14 602 0
4 601 0
4 611 0
0 611 0
10 611 0
9 607 0
5 606 0
26 607 0
29 611 0
37 611 0
41 611 0
40 607 0
44 604 0
31 605 0
27 601 0
38 603 0
41 600 0
47 599 0
57 593 0
50 595 0
56 601 0
49 606 0
44 609 0
54 611 0
53 607 0
52 602 0
82 611 0
60 611 0
76 611 0
63 607 0
74 605 0
67 602 0
61 601 0
70 595 0
79 594 0
71 585 0
78 580 0
63 593 0
63 581 0
54 590 0
49 591 0
45 581 0
52 580 0
55 583 0
55 576 0
45 576 0
50 575 0
54 570 0
60 572 0
65 567 0
60 577 0
69 574 0
75 574 0
78 568 0
104 560 0
84 539 0
84 554 0
113 544 0
142 544 0
189 544 0
187 560 0
153 551 0
116 556 0
147 566 0
175 575 0
162 566 0
125 568 0
101 570 0
112 567 0
86 561 0
93 565 0
86 570 0
86 583 0
92 576 0
101 594 0
91 595 0
83 603 0
89 611 0
96 611 0
103 611 0
110 603 0
115 611 0
141 611 0
153 611 0
191 611 0
165 611 0
190 593 0
121 600 0
115 584 0
126 589 0
146 585 0
293 611 0
253 602 0
210 599 0
292 596 0
214 611 0
203 611 0
225 611 0
245 611 0
306 611 0
457 611 0
478 611 0
426 611 0
321 611 0
401 611 0
364 611 0
361 597 0
398 595 0
416 599 0
414 573 0
461 586 0
441 594 0
392 574 0
315 590 0
246 589 0
199 571 0
219 585 0
367 577 0
261 571 0
244 569 0
214 547 0
283 555 0
301 541 0
379 551 0
334 566 0
437 566 0
407 545 0
448 544 0
446 518 0
340 526 0
363 532 0
383 516 0
422 504 0
460 498 0
385 497 0
370 501 0
360 514 0
219 502 0
328 496 0
279 505 0
227 512 0
301 519 0
320 523 0
283 531 0
236 534 0
221 531 0
175 538 0
180 519 0
201 535 0
189 529 0
159 539 0
99 538 0
126 537 0
136 519 0
156 520 0
102 518 0
85 515 0
93 497 0
119 504 0
162 510 0
189 497 0
175 504 0
191 517 0
210 514 0
206 498 0
238 491 0
252 492 0
200 483 0
177 483 0
161 493 0
108 492 0
86 486 0
125 482 0
139 491 0
103 475 0
86 472 0
91 459 0
106 460 0
123 451 0
188 461 0
143 462 0
248 468 0
228 465 0
214 449 0
287 473 0
352 470 0
267 469 0
324 473 0
271 489 0
300 490 0
343 493 0
339 479 0
305 474 0
373 486 0
358 490 0
401 495 0
431 483 0
394 480 0
472 474 0
374 470 0
385 457 0
416 452 0
426 467 0
521 139 0
482 130 0
530 132 0
496 144 0
514 150 0
487 152 0
524 153 0
536 153 0
528 147 0
557 148 0
547 149 0
542 150 0
542 143 0
550 140 0
543 137 0
542 130 0
551 127 0
552 134 0
565 139 0
558 143 0
562 132 0
558 137 0
573 130 0
579 131 0
579 136 0
577 141 0
574 135 0
576 146 0
582 143 0
586 146 0
581 149 0
572 153 0
569 149 0
571 143 0
563 144 0
563 149 0
566 153 0
548 155 0
548 160 0
555 154 0
557 160 0
572 160 0
579 156 0
581 161 0
571 165 0
562 166 0
576 177 0
582 171 0
575 169 0
569 171 0
559 174 0
563 171 0
557 168 0
548 173 0
553 176 0
546 166 0
542 173 0
547 178 0
537 176 0
540 160 0
542 155 0
535 158 0
531 163 0
537 164 0
525 165 0
530 156 0
508 161 0
499 161 0
517 167 0
490 170 0
[...]
CELL_DATA 2956
COLOR_SCALARS ColorSpace 1
0.921569
0.396078
0.921569
0.921569
0.566013
0.921569
0.396078
0.436601
0.921569
0.824837
0.921569
0.864052
0.921569
0.449673
0.522876
0.508497
0.921569
0.711111
0.920261
0.921569
0.564706
0.917647
0.564706
0.921569
0.396078
0.917647
0.921569
0.921569
0.921569
0.564706
0.921569
0.921569
0.688889
0.920261
0.921569
0.921569
0.662745
0.564706
0.396078
0.564706
0.921569
0.921569
0.556863
0.715033
0.921569
0.921569
0.921569
0.670588
0.562092
0.921569
0.921569
0.921569
0.921569
0.921569
0.396078
0.564706
0.396078
0.594771
0.396078
0.921569
0.741176
0.909804
0.396078
0.564706
0.396078
0.392157
0.396078
0.505882
0.833987
0.91634
0.847059
0.396078
0.921569
0.91634
0.921569
0.921569
0.921569
0.402614
0.886275
0.566013
0.913725
0.921569
0.882353
0.563399
0.396078
0.667974
0.921569
0.90719
0.920261
0.921569
0.921569
0.921569
0.911111
0.921569
0.764706
0.564706
0.921569
0.921569
0.921569
0.921569
0.921569
0.891503
0.917647
0.564706
0.802614
0.921569
0.45098
0.396078
0.921569
0.584314
0.529412
0.921569
0.830065
0.712418
0.921569
0.452288
0.865359
0.513725
0.822222
0.921569
0.921569
0.921569
0.920261
0.520261
0.921569
0.921569
0.921569
0.921569
0.921569
0.635294
0.921569
0.921569
0.921569
0.921569
0.921569
0.921569
0.921569
0.921569
0.921569
0.918954
0.633987
0.564706
0.921569
0.921569
0.920261
0.564706
0.679739
0.819608
0.904575
0.920261
0.564706
0.921569
0.751634
0.921569
0.649673
0.904575
0.564706
0.920261
0.639216
0.921569
0.67451
0.921569
0.915033
0.755556
0.920261
0.564706
0.921569
0.610458
0.921569
0.564706
0.921569
0.90719
0.921569
0.508497
0.921569
0.913725
0.921569
0.921569
0.921569
0.921569
0.921569
0.921569
0.921569
0.921569
0.921569
0.921569
0.921569
0.921569
0.921569
0.921569
0.921569
0.921569
0.921569
0.396078
0.921569
0.921569
0.742484
0.921569
0.921569
0.921569
0.921569
0.921569
0.921569
0.921569
0.921569
0.921569
0.921569
0.921569
0.921569
0.921569
0.921569
0.921569
0.921569
0.921569
0.921569
0.921569
0.921569
0.921569
0.921569
0.921569
0.921569
0.921569
0.921569
0.921569
0.627451
0.786928
0.396078
0.439216
0.396078
0.921569
0.47451
0.564706
0.560784
0.921569
0.921569
0.735948
0.921569
0.921569
0.900654
0.915033
0.482353
0.711111
0.44183
0.392157
0.396078
0.396078
0.458824
0.396078
0.396078
0.396078
0.452288
0.396078
0.721569
0.44183
0.921569
0.921569
0.508497
0.564706
0.44183
0.555556
0.564706
0.564706
0.610458
0.921569
0.564706
0.867974
0.921569
0.564706
0.784314
0.786928
0.562092
0.564706
0.564706
0.564706
0.50719
0.564706
0.921569
0.564706
0.396078
0.396078
0.735948
0.563399
0.500654
0.396078
0.921569
0.396078
0.396078
0.396078
0.734641
0.734641
0.921569
0.396078
0.658824
0.513725
0.396078
0.730719
0.560784
0.396078
0.921569
0.921569
0.921569
0.921569
0.85098
0.921569
0.921569
0.921569
0.921569
0.921569
0.921569
0.741176
0.921569
0.921569
0.921569
0.921569
0.921569
0.921569
0.921569
0.921569
0.921569
0.921569
0.921569
0.921569
0.921569
0.458824
0.566013
0.87451
0.921569
0.921569
0.921569
0.921569
0.918954
0.785621
0.882353
0.735948
0.508497
0.394771
0.669281
0.912418
0.903268
0.920261
0.454902
0.921569
0.909804
0.921569
0.921569
0.921569
0.921569
0.921569
0.921569
0.921569
0.921569
0.918954
0.921569
0.921569
0.921569
0.921569
0.921569
0.921569
0.921569
0.921569
0.909804
0.921569
0.917647
0.915033
0.920261
0.921569
0.90719
0.921569
0.920261
0.921569
0.921569
0.912418
0.537255
0.890196
0.921569
0.879739
0.448366
0.921569
0.813072
0.733333
0.918954
0.905882
0.769935
0.844444
0.921569
0.921569
0.921569
0.921569
0.921569
0.921569
0.921569
0.921569
0.921569
0.921569
0.921569
0.921569
0.921569
0.921569
0.921569
0.921569
0.921569
0.921569
0.847059
0.921569
0.921569
0.921569
0.921569
0.921569
0.921569
0.921569
0.921569
0.921569
0.921569
0.921569
0.921569
0.921569
0.884967
0.921569
0.921569
0.921569
0.921569
0.921569
0.921569
0.921569
0.921569
0.921569
0.662745
0.921569
0.564706
0.772549
0.873203
0.921569
0.781699
0.921569
0.921569
0.908497
0.921569
0.630065
0.85098
0.564706
0.564706
0.644444
0.912418
0.904575
0.921569
0.793464
0.857516
0.908497
0.670588
0.921569
0.921569
0.91634
0.792157
0.911111
0.678431
0.921569
0.918954
0.877124
0.490196
0.801307
0.4
0.921569
0.918954
0.564706
0.63268
0.80915
0.63268
0.648366
0.766013
0.495425
0.921569
0.918954
0.505882
0.504575
0.511111
0.794771
0.593464
0.633987
0.564706
0.563399
0.564706
0.45098
0.462745
0.921569
0.469281
0.396078
0.921569
0.45098
0.920261
0.564706
0.704575
0.564706
0.60915
0.564706
0.522876
0.396078
0.396078
0.564706
0.921569
0.564706
0.921569
0.806536
0.921569
0.921569
0.921569
0.564706
0.921569
0.569935
0.643137
0.921569
0.713725
0.921569
0.921569
0.921569
0.83268
0.921569
0.606536
0.921569
0.564706
0.819608
0.511111
0.564706
0.752941
0.584314
0.871895
0.921569
0.921569
0.921569
0.921569
0.921569
0.921569
0.921569
0.921569
0.564706
0.921569
0.921569
0.921569
0.921569
0.921569
0.921569
0.921569
0.921569
0.921569
0.921569
0.921569
0.921569
0.921569
0.921569
0.921569
0.921569
0.921569
0.921569
0.921569
0.921569
0.921569
0.921569
0.921569
0.921569
0.921569
0.921569
0.921569
0.921569
0.921569
0.921569
0.921569
0.921569
0.921569
0.921569
0.921569
0.921569
0.921569
0.921569
0.921569
0.921569
0.921569
0.921569
0.913725
0.921569
0.662745
0.636601
0.635294
0.844444
0.921569
0.864052
0.836601
0.920261
0.908497
0.921569
0.566013
0.921569
0.921569
0.921569
0.920261
0.921569
0.67451
0.921569
0.564706
0.921569
0.921569
0.921569
0.920261
0.4
0.921569
0.921569
0.91634
0.509804
0.564706
0.461438
0.562092
0.908497
0.566013
0.703268
0.610458
0.901961
0.564706
0.921569
0.682353
0.820915
0.760784
0.564706
0.666667
0.566013
0.585621
0.560784
0.772549
0.70719
0.818301
0.849673
0.664052
0.601307
0.745098
0.920261
0.619608
0.664052
0.564706
0.871895
0.772549
0.921569
0.830065
0.678431
0.747712
0.71634
0.921569
0.918954
0.921569
0.833987
0.556863
0.884967
0.686275
0.814379
0.903268
0.918954
0.921569
0.920261
0.921569
0.921569
0.921569
0.921569
0.920261
0.844444
0.921569
0.564706
0.564706
0.920261
0.828758
0.921569
0.921569
0.454902
0.564706
0.584314
0.794771
0.479739
0.560784
0.564706
0.56732
0.843137
0.564706
0.921569
0.921569
0.921569
0.921569
0.921569
0.921569
0.921569
0.921569
0.921569
0.921569
0.921569
0.921569
0.920261
0.921569
0.921569
0.921569
0.921569
0.921569
0.921569
0.921569
0.735948
0.921569
0.921569
0.920261
0.921569
0.396078
0.920261
0.921569
0.495425
0.613072
0.564706
0.781699
0.564706
0.481046
0.700654
0.396078
0.453595
0.921569
0.458824
0.921569
0.921569
0.921569
0.921569
0.921569
0.517647
0.921569
0.529412
0.921569
0.921569
0.884967
0.921569
0.383007
0.921569
0.921569
0.921569
0.921569
0.921569
0.921569
0.921569
0.921569
0.921569
0.921569
0.921569
0.921569
0.921569
0.921569
0.921569
0.921569
0.921569
0.921569
0.921569
0.921569
0.921569
0.921569
0.921569
0.921569
0.921569
0.921569
0.921569
0.921569
0.921569
0.921569
0.921569
0.921569
0.921569
0.921569
0.921569
0.921569
0.921569
0.921569
0.921569
0.921569
0.921569
0.921569
0.921569
0.921569
0.921569
0.921569
0.921569
0.921569
0.921569
0.921569
0.921569
0.921569
0.921569
0.921569
0.921569
0.921569
0.921569
0.921569
0.921569
0.921569
0.921569
0.921569
0.921569
0.921569
0.921569
0.921569
0.921569
0.921569
0.921569
0.921569
0.921569
0.921569
0.921569
0.921569
0.921569
0.921569
0.921569
0.921569
0.921569
0.921569
0.921569
0.921569
0.921569
0.921569
0.921569
0.921569
0.921569
0.915033
0.564706
0.921569
0.921569
0.921569
0.921569
0.921569
0.921569
0.921569
0.921569
0.921569
0.921569
0.921569
0.921569
0.921569
0.921569
0.921569
0.921569
0.921569
0.921569
0.921569
0.921569
0.921569
0.921569
0.921569
0.921569
0.921569
0.921569
0.921569
0.921569
0.921569
0.921569
0.921569
0.921569
0.921569
0.921569
0.921569
0.921569
0.921569
0.921569
0.921569
0.921569
0.921569
0.921569
0.921569
0.921569
0.921569
0.921569
0.921569
0.921569
0.921569
0.921569
0.921569
0.921569
0.921569
0.921569
0.921569
0.921569
0.921569
0.921569
0.921569
0.921569
0.921569
0.921569
0.921569
0.921569
0.921569
0.921569
0.921569
0.921569
0.921569
0.921569
0.921569
0.921569
0.921569
0.921569
0.921569
0.921569
0.921569
0.921569
0.921569
0.921569
0.921569
0.921569
0.921569
0.921569
0.921569
0.921569
0.921569
0.921569
0.921569
0.921569
0.921569
0.921569
0.921569
0.921569
0.921569
0.921569
0.921569
0.921569
0.921569
0.921569
0.921569
0.921569
0.921569
0.921569
0.921569
0.921569
0.769935
0.875817
0.439216
0.728105
0.801307
0.890196
0.396078
0.623529
0.921569
0.695425
0.615686
0.396078
0.522876
0.743791
0.396078
0.698039
0.393464
0.698039
0.396078
0.52549
0.396078
0.396078
0.402614
0.396078
0.396078
0.396078
0.396078
0.457516
0.448366
0.396078
0.552941
0.396078
0.396078
0.457516
0.396078
0.396078
0.416993
0.396078
0.396078
0.416993
0.40915
0.396078
0.681046
0.436601
0.44183
0.452288
0.921569
0.921569
0.921569
0.759477
0.921569
0.789542
0.614379
0.616993
0.712418
0.921569
0.921569
0.921569
0.921569
0.543791
0.921569
0.921569
0.921569
0.815686
0.921569
0.760784
0.537255
0.718954
0.458824
0.416993
0.648366
0.80915
0.921569
0.585621
0.921569
0.915033
0.921569
0.921569
0.921569
0.721569
0.545098
0.890196
0.921569
0.921569
0.737255
0.887582
0.559477
0.712418
0.396078
0.563399
0.4
0.396078
0.436601
0.396078
0.4
0.396078
0.4
0.482353
0.564706
0.4
0.72549
0.396078
0.4
0.564706
0.900654
0.886275
0.546405
0.550327
0.396078
0.396078
0.473203
0.396078
0.739869
0.410458
0.396078
0.396078
0.416993
0.416993
0.396078
0.396078
0.396078
0.452288
0.396078
0.564706
0.396078
0.564706
0.457516
0.508497
0.569935
0.559477
0.564706
0.513725
0.564706
0.564706
0.564706
0.564706
0.564706
0.452288
0.508497
0.564706
0.452288
0.562092
0.396078
0.44183
0.436601
0.436601
0.505882
0.398693
0.564706
0.564706
0.564706
0.564706
0.564706
0.564706
0.564706
0.564706
0.564706
0.564706
0.564706
0.564706
0.564706
0.564706
0.564706
0.564706
0.564706
0.564706
0.564706
0.564706
0.913725
0.747712
0.564706
0.911111
0.564706
0.687582
0.564706
0.564706
0.564706
0.564706
0.508497
0.564706
0.508497
0.501961
0.555556
0.564706
0.457516
0.564706
0.564706
0.564706
0.505882
0.511111
0.505882
0.562092
0.448366
0.398693
0.562092
0.452288
0.396078
0.499346
0.45098
0.448366
0.509804
0.45098
0.396078
0.396078
0.396078
0.396078
0.396078
0.396078
0.396078
0.554248
0.45098
0.396078
0.396078
0.396078
0.45098
0.448366
0.45098
0.45098
0.45098
0.505882
0.396078
0.406536
0.396078
0.396078
0.396078
0.396078
0.537255
0.911111
0.70719
0.730719
0.537255
0.921569
0.882353
0.921569
0.921569
0.921569
0.91634
0.887582
0.91634
0.566013
0.921569
0.845752
0.921569
0.911111
0.921569
0.921569
0.921569
0.921569
0.921569
0.921569
0.735948
0.905882
0.396078
0.566013
0.396078
0.396078
0.905882
0.91634
0.921569
0.566013
0.688889
0.396078
0.396078
0.671895
0.91634
0.562092
0.921569
0.913725
0.921569
0.921569
0.921569
0.921569
0.921569
0.921569
0.921569
0.91634
0.921569
0.921569
0.921569
0.921569
0.921569
0.921569
0.921569
0.921569
0.921569
0.921569
0.85098
0.921569
0.864052
0.921569
0.921569
0.921569
0.921569
0.921569
0.921569
0.921569
0.921569
0.921569
0.921569
0.921569
0.921569
0.921569
0.921569
0.921569
0.921569
0.921569
0.921569
0.921569
0.921569
0.921569
0.921569
0.921569
0.921569
0.921569
0.921569
0.921569
0.921569
0.921569
0.921569
0.921569
0.921569
0.921569
0.921569
0.921569
0.921569
0.921569
0.921569
0.921569
0.921569
0.921569
0.921569
0.921569
0.921569
0.921569
0.921569
0.921569
0.921569
0.921569
0.921569
0.921569
0.921569
0.921569
0.921569
0.921569
0.921569
0.921569
0.921569
0.921569
0.921569
0.921569
0.921569
0.921569
0.921569
0.921569
0.921569
0.921569
0.921569
0.921569
0.921569
0.921569
0.921569
0.921569
0.921569
0.921569
0.921569
0.921569
0.921569
0.921569
0.921569
0.921569
0.921569
0.921569
0.921569
0.921569
0.921569
0.921569
0.891503
0.921569
0.921569
0.921569
0.921569
0.921569
0.921569
0.921569
0.921569
0.921569
0.921569
0.738562
0.91634
0.921569
0.921569
0.921569
0.921569
0.70719
0.908497
0.563399
0.733333
0.396078
0.396078
0.396078
0.396078
0.393464
0.396078
0.563399
0.560784
0.396078
0.396078
0.396078
0.564706
0.396078
0.396078
0.396078
0.396078
0.396078
0.396078
0.396078
0.695425
0.711111
0.396078
0.886275
0.541176
0.91634
0.921569
0.870588
0.823529
0.738562
0.524183
0.648366
0.398693
0.563399
0.866667
0.737255
0.913725
0.520261
0.396078
0.402614
0.396078
0.670588
0.734641
0.691503
0.396078
0.445752
0.566013
0.50719
0.501961
0.562092
0.515033
0.504575
0.447059
0.504575
0.394771
0.503268
0.563399
0.392157
0.392157
0.393464
0.737255
0.394771
0.739869
0.566013
0.396078
0.921569
0.921569
0.921569
0.915033
0.921569
0.912418
0.564706
0.911111
0.913725
0.918954
0.915033
0.921569
0.921569
0.921569
0.921569
0.921569
0.921569
0.921569
0.921569
0.921569
0.921569
0.921569
0.921569
0.921569
0.921569
0.921569
0.921569
0.921569
0.921569
0.921569
0.921569
0.921569
0.921569
0.921569
0.921569
0.921569
0.921569
0.921569
0.921569
0.921569
0.921569
0.921569
0.921569
0.813072
0.917647
0.918954
0.920261
0.921569
0.921569
0.921569
0.91634
0.918954
0.915033
0.921569
0.920261
0.921569
0.921569
0.921569
0.920261
0.921569
0.921569
0.921569
0.921569
0.921569
0.921569
0.921569
0.921569
0.921569
0.921569
0.921569
0.921569
0.921569
0.921569
0.921569
0.921569
0.921569
0.921569
0.921569
0.921569
0.921569
0.921569
0.921569
0.921569
0.91634
0.921569
0.921569
0.921569
0.921569
0.921569
0.921569
0.921569
0.921569
0.917647
0.921569
0.90719
0.917647
0.913725
0.900654
0.909804
0.905882
0.911111
0.55817
0.921569
0.920261
0.918954
0.917647
0.918954
0.920261
0.921569
0.920261
0.921569
0.921569
0.917647
0.921569
0.921569
0.921569
0.921569
0.921569
0.904575
0.921569
0.921569
0.921569
0.921569
0.921569
0.921569
0.921569
0.918954
0.921569
0.921569
0.801307
0.921569
0.921569
0.903268
0.918954
0.918954
0.440523
0.786928
0.732026
0.589542
0.711111
0.735948
0.724183
0.909804
0.554248
0.394771
0.760784
0.448366
0.504575
0.564706
0.640523
0.904575
0.639216
0.394771
0.473203
0.448366
0.563399
0.448366
0.56732
0.568627
0.564706
0.662745
0.666667
0.68366
0.917647
0.671895
0.620915
0.858824
0.921569
0.857516
0.564706
0.564706
0.72549
0.564706
0.738562
0.613072
0.882353
0.921569
0.79085
0.921569
0.921569
0.921569
0.867974
0.921569
0.921569
0.905882
0.921569
0.921569
0.921569
0.921569
0.921569
0.921569
0.921569
0.921569
0.921569
0.921569
0.921569
0.921569
0.844444
0.72549
0.90719
0.921569
0.921569
0.917647
0.921569
0.921569
0.921569
0.921569
0.921569
0.921569
0.921569
0.921569
0.921569
0.921569
0.921569
0.921569
0.921569
0.921569
0.921569
0.921569
0.921569
0.921569
0.921569
0.921569
0.921569
0.921569
0.921569
0.921569
0.921569
0.921569
0.921569
0.921569
0.921569
0.921569
0.921569
0.921569
0.921569
0.921569
0.921569
0.921569
0.921569
0.921569
0.921569
0.921569
0.921569
0.921569
0.921569
0.921569
0.921569
0.921569
0.921569
0.921569
0.921569
0.921569
0.921569
0.921569
0.921569
0.921569
0.921569
0.921569
0.921569
0.921569
0.921569
0.921569
0.921569
0.921569
0.921569
0.921569
0.921569
0.921569
0.921569
0.921569
0.921569
0.921569
0.921569
0.921569
0.921569
0.921569
0.921569
0.921569
0.921569
0.921569
0.908497
0.921569
0.921569
0.921569
0.921569
0.921569
0.921569
0.921569
0.921569
0.921569
0.921569
0.921569
0.921569
0.921569
0.921569
0.847059
0.921569
0.654902
0.921569
0.911111
0.921569
0.921569
0.921569
0.921569
0.921569
0.921569
0.921569
0.921569
0.903268
0.921569
0.784314
0.921569
0.89281
0.921569
0.909804
0.564706
0.738562
0.675817
0.91634
0.903268
0.678431
0.921569
0.921569
0.905882
0.921569
0.921569
0.921569
0.921569
0.91634
0.921569
0.921569
0.91634
0.867974
0.921569
0.90719
0.644444
0.921569
0.915033
0.921569
0.781699
0.921569
0.74902
0.635294
0.564706
0.68366
0.645752
0.564706
0.597386
0.564706
0.763399
0.508497
0.452288
0.452288
0.396078
0.396078
0.396078
0.45098
0.396078
0.563399
0.564706
0.677124
0.50719
0.74902
0.50719
0.900654
0.789542
0.915033
0.677124
0.677124
0.564706
0.679739
0.564706
0.785621
0.511111
0.564706
0.562092
0.564706
0.461438
0.564706
0.564706
0.50719
0.396078
0.394771
0.396078
0.50719
0.449673
0.564706
0.564706
0.394771
0.396078
0.396078
0.396078
0.396078
0.396078
0.45098
0.396078
0.396078
0.45098
0.564706
0.513725
0.396078
0.405229
0.564706
0.564706
0.564706
0.564706
0.559477
0.56732
0.564706
0.501961
0.564706
0.564706
0.511111
0.564706
0.673203
0.564706
0.678431
0.564706
0.564706
0.555556
0.839216
0.630065
0.720261
0.564706
0.673203
0.564706
0.564706
0.913725
0.913725
0.766013
0.903268
0.848366
0.921569
0.921569
0.784314
0.840523
0.921569
0.866667
0.673203
0.564706
0.675817
0.564706
0.564706
0.773856
0.653595
0.772549
0.921569
0.921569
0.921569
0.921569
0.921569
0.918954
0.920261
0.622222
0.63268
0.920261
0.751634
0.920261
0.626144
0.912418
0.722876
0.912418
0.921569
0.921569
0.658824
0.566013
0.563399
0.921569
0.555556
0.903268
0.741176
0.733333
0.610458
0.920261
0.920261
0.920261
0.921569
0.918954
0.920261
0.921569
0.732026
0.917647
0.547712
0.918954
0.596078
0.48366
0.920261
0.860131
0.861438
0.789542
0.920261
0.917647
0.670588
0.921569
0.564706
0.794771
0.577778
0.56732
0.575163
0.695425
0.564706
0.56732
0.68366
0.562092
0.564706
0.593464
0.562092
0.618301
0.568627
0.562092
0.478431
0.630065
0.569935
0.564706
0.607843
0.547712
0.564706
0.511111
0.564706
0.569935
0.49281
0.520261
0.508497
0.688889
0.568627
0.445752
0.739869
0.564706
0.703268
0.857516
0.91634
0.818301
0.76732
0.921569
0.881046
0.921569
0.912418
0.654902
0.917647
0.921569
0.921569
0.921569
0.920261
0.917647
0.920261
0.920261
0.88366
0.703268
0.921569
0.89281
0.884967
0.764706
0.912418
0.569935
0.802614
0.920261
0.572549
0.579085
0.577778
0.568627
0.696732
0.56732
0.396078
0.45098
0.732026
0.521569
0.456209
0.424837
0.560784
0.586928
0.539869
0.428758
0.456209
0.428758
0.403922
0.45098
0.711111
0.886275
0.457516
0.396078
0.789542
0.396078
0.392157
0.396078
0.576471
0.44183
0.448366
0.402614
0.396078
0.56732
0.452288
0.396078
0.44183
0.396078
0.396078
0.505882
0.396078
0.512418
0.568627
0.393464
0.45098
0.393464
0.50719
0.508497
0.564706
0.563399
0.564706
0.563399
0.566013
0.50719
0.56732
0.566013
0.564706
0.564706
0.564706
0.564706
0.921569
0.564706
0.564706
0.564706
0.630065
0.564706
0.564706
0.564706
0.56732
0.454902
0.452288
0.564706
0.564706
0.564706
0.675817
0.881046
0.564706
0.643137
0.866667
0.747712
0.921569
0.921569
0.921569
0.921569
0.921569
0.921569
0.921569
0.921569
0.921569
0.921569
0.921569
0.921569
0.921569
0.921569
0.921569
0.921569
0.921569
0.921569
0.921569
0.881046
0.921569
0.766013
0.921569
0.873203
0.921569
0.564706
0.864052
0.754248
0.745098
0.633987
0.921569
0.636601
0.569935
0.675817
0.564706
0.647059
0.556863
0.622222
0.569935
0.921569
0.921569
0.921569
0.921569
0.921569
0.921569
0.921569
0.871895
0.794771
0.921569
0.921569
0.921569
0.921569
0.921569
0.921569
0.921569
0.688889
0.921569
0.815686
0.921569
0.921569
0.867974
0.741176
0.594771
0.755556
0.83268
0.921569
0.921569
0.921569
0.871895
0.921569
0.921569
0.921569
0.699346
0.921569
0.564706
0.564706
0.564706
0.564706
0.601307
0.682353
0.581699
0.720261
0.580392
0.801307
0.563399
0.831373
0.564706
0.564706
0.563399
0.597386
0.717647
0.920261
0.713725
0.822222
0.831373
0.920261
0.920261
0.921569
0.921569
0.921569
0.921569
0.921569
0.921569
0.921569
0.794771
0.921569
0.754248
0.921569
0.807843
0.921569
0.921569
0.921569
0.921569
0.921569
0.921569
0.921569
0.921569
0.921569
0.921569
0.921569
0.921569
0.921569
0.921569
0.921569
0.921569
0.921569
0.921569
0.921569
0.921569
0.921569
0.921569
0.921569
0.921569
0.921569
0.921569
0.921569
0.921569
0.921569
0.921569
0.921569
0.921569
0.921569
0.921569
0.921569
0.921569
0.921569
0.921569
0.921569
0.921569
0.921569
0.921569
0.921569
0.921569
0.921569
0.921569
0.921569
0.921569
0.921569
0.921569
0.921569
0.921569
0.921569
0.921569
0.921569
0.921569
0.921569
0.921569
0.921569
0.921569
0.921569
0.921569
0.921569
0.921569
0.921569
0.921569
0.921569
0.921569
0.921569
0.921569
0.921569
0.921569
0.921569
0.921569
0.921569
0.921569
0.921569
0.921569
0.921569
0.921569
0.921569
0.921569
0.921569
0.921569
0.921569
0.921569
0.921569
0.921569
0.921569
0.921569
0.921569
0.921569
0.921569
0.921569
0.921569
0.921569
0.921569
0.921569
0.921569
0.921569
0.921569