# vtk DataFile Version 1.0
Unstructured Grid Example
ASCII

DATASET UNSTRUCTURED_GRID
POINTS 1582 float
0 611 0
4 611 0
10 611 0
16 611 0
21 611 0
29 611 0
37 611 0
41 611 0
48 611 0
54 611 0
60 611 0
67 611 0
76 611 0
82 611 0
89 611 0
96 611 0
103 611 0
115 611 0
125 611 0
141 611 0
153 611 0
165 611 0
176 611 0
191 611 0
203 611 0
214 611 0
225 611 0
245 611 0
261 611 0
275 611 0
293 611 0
306 611 0
321 611 0
341 611 0
364 611 0
378 611 0
401 611 0
426 611 0
441 611 0
457 611 0
478 611 0
498 611 0
517 611 0
537 611 0
564 611 0
602 611 0
626 611 0
654 611 0
680 611 0
694 611 0
705 611 0
715 611 0
723 611 0
736 611 0
744 611 0
753 611 0
759 611 0
44 609 0
762 609 0
0 607 0
9 607 0
26 607 0
40 607 0
53 607 0
63 607 0
747 607 0
5 606 0
17 606 0
49 606 0
757 606 0
31 605 0
57 605 0
74 605 0
732 605 0
762 605 0
44 604 0
92 604 0
740 604 0
22 603 0
38 603 0
83 603 0
101 603 0
110 603 0
752 603 0
14 602 0
52 602 0
67 602 0
253 602 0
723 602 0
4 601 0
27 601 0
56 601 0
61 601 0
746 601 0
0 600 0
41 600 0
121 600 0
148 600 0
33 599 0
47 599 0
135 599 0
210 599 0
416 599 0
691 599 0
756 599 0
10 598 0
18 598 0
164 598 0
714 598 0
762 598 0
38 597 0
55 597 0
361 597 0
292 596 0
667 596 0
28 595 0
50 595 0
70 595 0
91 595 0
231 595 0
398 595 0
752 595 0
0 594 0
34 594 0
79 594 0
101 594 0
441 594 0
550 594 0
737 594 0
758 594 0
40 593 0
45 593 0
57 593 0
63 593 0
190 593 0
340 593 0
378 593 0
7 592 0
49 591 0
24 590 0
54 590 0
315 590 0
744 590 0
762 590 0
15 589 0
35 589 0
126 589 0
174 589 0
246 589 0
603 589 0
754 589 0
0 588 0
40 588 0
66 588 0
269 588 0
723 588 0
45 587 0
78 587 0
58 586 0
204 586 0
461 586 0
6 585 0
71 585 0
146 585 0
219 585 0
484 585 0
641 585 0
700 585 0
31 584 0
50 584 0
104 584 0
115 584 0
573 584 0
55 583 0
86 583 0
735 583 0
0 582 0
25 582 0
160 582 0
39 581 0
45 581 0
63 581 0
746 581 0
18 580 0
52 580 0
78 580 0
134 579 0
754 579 0
349 578 0
762 578 0
31 577 0
60 577 0
367 577 0
45 576 0
55 576 0
92 576 0
302 576 0
531 576 0
50 575 0
175 575 0
507 575 0
0 574 0
8 574 0
69 574 0
75 574 0
285 574 0
392 574 0
660 574 0
715 574 0
414 573 0
16 572 0
34 572 0
40 572 0
60 572 0
46 571 0
199 571 0
261 571 0
741 571 0
27 570 0
54 570 0
86 570 0
101 570 0
752 570 0
762 570 0
72 569 0
244 569 0
682 569 0
78 568 0
125 568 0
4 567 0
65 567 0
112 567 0
45 566 0
147 566 0
162 566 0
216 566 0
334 566 0
437 566 0
93 565 0
19 564 0
35 564 0
701 564 0
730 564 0
28 563 0
482 563 0
49 562 0
58 562 0
0 561 0
42 561 0
86 561 0
70 560 0
104 560 0
187 560 0
602 560 0
9 559 0
752 559 0
46 557 0
63 557 0
77 557 0
93 557 0
741 557 0
22 556 0
116 556 0
314 556 0
56 555 0
283 555 0
0 554 0
31 554 0
39 554 0
84 554 0
574 554 0
69 553 0
100 552 0
762 552 0
129 551 0
153 551 0
173 551 0
231 551 0
354 551 0
379 551 0
505 551 0
46 550 0
645 550 0
5 549 0
78 549 0
13 548 0
60 548 0
91 547 0
214 547 0
40 546 0
259 546 0
51 545 0
68 545 0
407 545 0
0 544 0
113 544 0
142 544 0
189 544 0
448 544 0
29 543 0
729 543 0
19 542 0
330 542 0
532 542 0
705 542 0
8 541 0
301 541 0
59 540 0
745 540 0
84 539 0
159 539 0
762 539 0
47 538 0
74 538 0
99 538 0
175 538 0
0 537 0
126 537 0
201 535 0
39 534 0
236 534 0
481 534 0
23 533 0
108 533 0
11 532 0
137 532 0
363 532 0
682 532 0
48 531 0
221 531 0
258 531 0
283 531 0
0 530 0
90 530 0
60 529 0
189 529 0
77 528 0
148 528 0
754 528 0
41 526 0
340 526 0
27 525 0
6 524 0
245 523 0
320 523 0
49 522 0
122 522 0
167 522 0
736 522 0
407 521 0
19 520 0
156 520 0
0 519 0
36 519 0
56 519 0
65 519 0
136 519 0
180 519 0
301 519 0
102 518 0
273 518 0
446 518 0
507 518 0
9 517 0
191 517 0
286 516 0
383 516 0
28 515 0
85 515 0
210 514 0
360 514 0
649 514 0
42 513 0
50 513 0
596 513 0
762 513 0
227 512 0
70 511 0
542 511 0
0 510 0
20 510 0
162 510 0
243 510 0
715 510 0
9 509 0
34 508 0
746 508 0
57 507 0
146 507 0
261 507 0
338 506 0
682 506 0
45 505 0
133 505 0
279 505 0
81 504 0
119 504 0
175 504 0
422 504 0
294 503 0
219 502 0
8 501 0
370 501 0
20 500 0
69 500 0
0 499 0
315 499 0
51 498 0
206 498 0
460 498 0
60 497 0
93 497 0
189 497 0
385 497 0
328 496 0
40 495 0
401 495 0
8 493 0
161 493 0
343 493 0
108 492 0
252 492 0
31 491 0
139 491 0
238 491 0
17 490 0
300 490 0
358 490 0
496 490 0
734 490 0
61 489 0
72 489 0
271 489 0
285 489 0
53 488 0
218 487 0
0 486 0
86 486 0
373 486 0
9 484 0
523 484 0
45 483 0
177 483 0
200 483 0
431 483 0
762 483 0
36 482 0
125 482 0
394 480 0
64 479 0
339 479 0
693 479 0
0 478 0
54 478 0
75 478 0
561 478 0
159 476 0
448 476 0
19 475 0
29 475 0
103 475 0
7 474 0
305 474 0
472 474 0
287 473 0
324 473 0
411 473 0
86 472 0
50 471 0
60 471 0
352 470 0
374 470 0
267 469 0
655 469 0
69 468 0
248 468 0
0 467 0
14 467 0
42 467 0
426 467 0
228 465 0
56 464 0
610 464 0
32 462 0
143 462 0
77 461 0
188 461 0
337 461 0
106 460 0
49 459 0
67 459 0
91 459 0
488 459 0
0 458 0
10 458 0
446 458 0
297 457 0
385 457 0
762 457 0
58 456 0
520 455 0
22 454 0
39 454 0
416 452 0
72 451 0
123 451 0
168 451 0
735 451 0
10 449 0
51 449 0
214 449 0
315 449 0
466 448 0
0 447 0
60 447 0
278 447 0
257 446 0
105 445 0
235 445 0
547 445 0
577 444 0
86 442 0
16 441 0
31 441 0
55 440 0
71 440 0
339 440 0
45 439 0
361 439 0
482 439 0
446 437 0
691 437 0
391 436 0
0 435 0
62 435 0
9 433 0
147 433 0
762 433 0
297 432 0
19 431 0
72 431 0
90 431 0
125 431 0
35 430 0
648 429 0
191 428 0
498 428 0
320 427 0
51 426 0
80 425 0
65 423 0
740 423 0
26 422 0
110 422 0
217 422 0
419 422 0
262 421 0
0 420 0
167 420 0
9 418 0
40 418 0
57 418 0
95 417 0
345 417 0
475 417 0
542 417 0
130 414 0
83 413 0
0 412 0
68 412 0
586 412 0
19 411 0
520 411 0
50 409 0
370 408 0
762 407 0
303 406 0
717 406 0
37 404 0
61 403 0
453 402 0
86 400 0
407 400 0
682 400 0
0 399 0
71 399 0
109 399 0
559 399 0
10 398 0
125 397 0
149 396 0
486 395 0
27 394 0
535 394 0
62 393 0
49 392 0
198 392 0
0 389 0
75 389 0
13 388 0
234 388 0
340 386 0
88 385 0
735 385 0
509 384 0
621 383 0
762 383 0
56 382 0
114 382 0
169 381 0
428 381 0
133 380 0
40 379 0
708 379 0
0 378 0
11 378 0
100 378 0
303 378 0
25 377 0
79 376 0
458 376 0
547 375 0
368 374 0
66 373 0
89 373 0
578 372 0
269 371 0
654 370 0
53 368 0
486 365 0
12 364 0
84 363 0
148 363 0
0 362 0
40 362 0
112 362 0
95 360 0
405 360 0
24 359 0
127 358 0
194 357 0
532 357 0
738 357 0
70 356 0
169 356 0
329 355 0
762 354 0
230 351 0
0 350 0
103 350 0
708 350 0
80 349 0
437 348 0
610 348 0
12 347 0
582 346 0
91 344 0
50 342 0
132 342 0
26 341 0
511 340 0
561 340 0
115 338 0
0 337 0
101 336 0
470 336 0
72 335 0
12 334 0
652 334 0
736 334 0
294 333 0
762 333 0
163 332 0
540 331 0
37 330 0
87 327 0
138 327 0
0 325 0
590 324 0
101 323 0
119 323 0
16 322 0
214 322 0
187 321 0
376 321 0
255 319 0
614 319 0
705 319 0
58 318 0
333 316 0
30 315 0
151 315 0
567 315 0
732 311 0
0 310 0
12 309 0
127 309 0
78 308 0
535 308 0
762 308 0
110 307 0
96 305 0
417 304 0
166 303 0
52 300 0
143 299 0
589 299 0
637 299 0
0 298 0
489 298 0
16 296 0
679 296 0
568 295 0
115 294 0
207 291 0
73 289 0
762 286 0
287 285 0
40 284 0
125 284 0
150 284 0
740 284 0
0 283 0
101 283 0
539 283 0
356 282 0
558 277 0
595 277 0
234 274 0
702 274 0
465 273 0
135 272 0
389 272 0
517 272 0
17 270 0
163 270 0
0 269 0
58 269 0
183 269 0
320 268 0
34 267 0
626 267 0
655 265 0
762 264 0
423 262 0
105 260 0
146 260 0
568 260 0
126 257 0
207 257 0
0 256 0
84 254 0
554 253 0
595 253 0
722 253 0
25 252 0
535 252 0
43 249 0
502 248 0
271 247 0
684 245 0
762 245 0
614 244 0
0 242 0
168 242 0
566 242 0
553 239 0
471 238 0
16 237 0
113 236 0
586 236 0
441 235 0
522 235 0
238 234 0
388 233 0
314 232 0
69 231 0
206 231 0
640 231 0
139 230 0
184 229 0
537 229 0
564 228 0
746 228 0
3 227 0
355 227 0
596 225 0
617 224 0
552 223 0
581 222 0
40 219 0
719 219 0
19 218 0
511 218 0
569 218 0
261 216 0
466 216 0
490 216 0
527 216 0
542 213 0
676 213 0
762 213 0
0 212 0
155 212 0
218 212 0
589 211 0
282 210 0
373 209 0
559 209 0
627 209 0
111 208 0
193 208 0
423 208 0
605 208 0
400 207 0
551 207 0
578 206 0
566 204 0
742 204 0
77 203 0
238 203 0
316 203 0
536 203 0
510 201 0
525 201 0
545 200 0
557 200 0
646 200 0
702 200 0
20 199 0
349 199 0
479 199 0
595 198 0
454 197 0
135 196 0
257 196 0
494 196 0
566 196 0
576 195 0
618 194 0
0 193 0
534 193 0
555 193 0
51 192 0
548 191 0
604 191 0
276 190 0
378 189 0
542 189 0
564 188 0
411 187 0
180 186 0
435 186 0
525 186 0
552 186 0
746 186 0
762 186 0
511 185 0
666 185 0
722 185 0
299 184 0
536 184 0
546 184 0
557 184 0
572 184 0
586 184 0
636 183 0
481 182 0
565 182 0
600 181 0
318 180 0
551 180 0
531 179 0
542 179 0
557 179 0
619 179 0
650 179 0
155 178 0
499 178 0
547 178 0
576 177 0
337 176 0
457 176 0
537 176 0
553 176 0
564 176 0
590 176 0
93 175 0
215 175 0
520 174 0
559 174 0
357 173 0
542 173 0
548 173 0
0 172 0
509 172 0
530 172 0
552 171 0
563 171 0
569 171 0
582 171 0
701 171 0
490 170 0
631 170 0
36 169 0
254 169 0
380 169 0
539 169 0
575 169 0
598 169 0
557 168 0
607 168 0
664 168 0
401 167 0
406 167 0
517 167 0
589 167 0
745 167 0
762 167 0
546 166 0
562 166 0
419 165 0
525 165 0
571 165 0
619 165 0
444 164 0
537 164 0
651 164 0
679 164 0
721 164 0
531 163 0
566 163 0
465 162 0
480 162 0
552 162 0
597 162 0
499 161 0
508 161 0
581 161 0
640 161 0
314 160 0
516 160 0
540 160 0
548 160 0
557 160 0
572 160 0
590 160 0
606 160 0
279 159 0
525 159 0
535 158 0
567 158 0
624 158 0
614 157 0
335 156 0
530 156 0
560 156 0
579 156 0
542 155 0
548 155 0
762 155 0
555 154 0
596 154 0
668 154 0
524 153 0
536 153 0
566 153 0
572 153 0
584 153 0
602 153 0
654 153 0
58 152 0
136 152 0
487 152 0
504 152 0
630 152 0
0 151 0
620 151 0
638 151 0
743 151 0
514 150 0
542 150 0
591 150 0
608 150 0
547 149 0
563 149 0
569 149 0
581 149 0
225 148 0
383 148 0
557 148 0
614 148 0
528 147 0
535 147 0
596 147 0
728 147 0
192 146 0
552 146 0
576 146 0
586 146 0
702 146 0
591 145 0
601 145 0
644 145 0
660 145 0
684 145 0
496 144 0
563 144 0
620 144 0
755 144 0
542 143 0
558 143 0
571 143 0
582 143 0
611 143 0
636 143 0
363 142 0
606 142 0
629 142 0
463 141 0
577 141 0
595 141 0
536 140 0
550 140 0
590 140 0
521 139 0
565 139 0
28 138 0
570 138 0
[...]
CELL_DATA 1582
COLOR_SCALARS lut 1
0.0249467
0.0307759
0.0427676
0.0546611
0.0604241
0.0561235
0.0435275
0.0386141
0.0365713
0.0419571
0.0515895
0.0649006
0.0819035
0.0924147
0.103923
0.114601
0.124684
0.141206
0.154066
0.172465
0.184482
0.195288
0.20368
0.213121
0.218811
0.223031
0.226791
0.232837
0.237291
0.241284
0.24649
0.250761
0.25595
0.263599
0.273881
0.28108
0.293852
0.309927
0.320835
0.333184
0.351041
0.370044
0.389121
0.410418
0.442568
0.483045
0.433436
0.347157
0.266573
0.223181
0.189087
0.158092
0.133294
0.0930398
0.0685864
0.0430918
0.0299777
0.0384909
0.0283103
0.0312105
0.0490402
0.0675799
0.0441065
0.0446035
0.063122
0.0692699
0.0423931
0.0679911
0.0413289
0.0438002
0.0636512
0.053063
0.0911951
0.122181
0.0359296
0.0423975
0.127672
0.100365
0.0799265
0.0513501
0.114774
0.144974
0.157963
0.0657247
0.0741526
0.0458689
0.0801396
0.262726
0.160904
0.052963
0.0793467
0.0529661
0.0649586
0.0912881
0.0474043
0.0471847
0.183917
0.214836
0.0672349
0.0417519
0.204974
0.26088
0.342664
0.271832
0.0658556
0.0767869
0.0921204
0.237698
0.204515
0.0539205
0.0543177
0.049822
0.319869
0.297721
0.358449
0.0864959
0.0417027
0.0948432
0.154215
0.284414
0.347844
0.0912881
0.0637954
0.0675445
0.125514
0.176612
0.380785
0.485413
0.147305
0.0753918
0.0501094
0.0416329
0.0523336
0.0694331
0.276547
0.327351
0.345251
0.0861241
0.0410193
0.104765
0.0460378
0.330736
0.137283
0.0776793
0.112195
0.0674373
0.233382
0.282939
0.314237
0.564183
0.103773
0.0800306
0.0529188
0.0766274
0.324992
0.217941
0.0447578
0.123108
0.0541708
0.312914
0.430747
0.101605
0.0931525
0.273295
0.322855
0.455146
0.486074
0.303184
0.0877942
0.0468574
0.2084
0.232013
0.556819
0.0520974
0.150961
0.196335
0.0940332
0.113748
0.299513
0.0638264
0.0521613
0.0668479
0.159934
0.132269
0.0537322
0.114959
0.277135
0.135373
0.395773
0.114698
0.0976384
0.0663678
0.408672
0.0601206
0.0632039
0.165142
0.386221
0.541759
0.0613433
0.337878
0.521395
0.105297
0.124737
0.0835836
0.0982041
0.388713
0.43517
0.475275
0.30262
0.452962
0.141716
0.0938443
0.0752296
0.0756695
0.0680178
0.367379
0.392477
0.21275
0.123061
0.0742548
0.130297
0.188452
0.170912
0.139493
0.0934186
0.393223
0.428954
0.105214
0.260132
0.118189
0.0904757
0.219605
0.0771636
0.309013
0.336289
0.388175
0.43857
0.499326
0.147268
0.148249
0.103198
0.390697
0.281775
0.129156
0.549489
0.0843945
0.0964843
0.11034
0.0897745
0.124405
0.110536
0.175034
0.364149
0.691105
0.133881
0.205086
0.0927979
0.115252
0.120816
0.140179
0.256713
0.152767
0.200939
0.451383
0.108496
0.429044
0.111239
0.133216
0.108916
0.131568
0.689441
0.130895
0.155178
0.195286
0.220572
0.278856
0.317174
0.381635
0.485552
0.50959
0.624295
0.104802
0.626934
0.124377
0.144608
0.147933
0.131004
0.152659
0.352955
0.119871
0.386536
0.115864
0.153136
0.546565
0.113048
0.176739
0.229582
0.313716
0.595893
0.154988
0.352325
0.163413
0.439972
0.691412
0.458935
0.135528
0.404731
0.142062
0.292427
0.177554
0.246881
0.235579
0.122347
0.178863
0.181558
0.269921
0.114691
0.191569
0.291447
0.138883
0.318728
0.66316
0.172182
0.19816
0.147282
0.202096
0.447915
0.585167
0.128444
0.293815
0.324663
0.34594
0.115776
0.207792
0.154493
0.255533
0.204898
0.210773
0.293692
0.14
0.389363
0.174364
0.132632
0.282046
0.350994
0.132626
0.230199
0.222699
0.38692
0.485788
0.172621
0.223114
0.117764
0.157769
0.144352
0.174254
0.23265
0.229068
0.314034
0.251902
0.285217
0.570545
0.730843
0.144029
0.233821
0.288568
0.416429
0.178726
0.241798
0.240754
0.368596
0.771335
0.145225
0.135658
0.892534
0.316165
0.245756
0.193383
0.797568
0.120046
0.178372
0.251578
0.250361
0.515989
0.146166
0.170228
0.387411
0.147018
0.272032
0.255434
0.306554
0.672759
0.14294
0.288611
0.260595
0.236526
0.30086
0.268457
0.451663
0.265661
0.264554
0.145009
0.333026
0.182248
0.187889
0.122902
0.273667
0.139748
0.282175
0.534594
0.154877
0.28223
0.291129
0.343956
0.279405
0.161725
0.367108
0.147271
0.320707
0.286571
0.329839
0.295042
0.188455
0.341559
0.302417
0.178091
0.291998
0.294653
0.629099
0.494807
0.156908
0.197313
0.302365
0.298868
0.14273
0.324357
0.126272
0.255151
0.303589
0.153214
0.706381
0.156277
0.355137
0.346889
0.391785
0.409117
0.183412
0.377017
0.318636
0.164831
0.321638
0.70844
0.128729
0.145991
0.206396
0.789823
0.393494
0.412534
0.189772
0.202513
0.323449
0.149634
0.354549
0.480403
0.364708
0.351685
0.332872
0.250861
0.153547
0.153637
0.352072
0.341932
0.38814
0.904196
0.179863
0.398008
0.132322
0.176783
0.178707
0.347346
0.416758
0.151257
0.921832
0.209636
0.450831
0.209145
0.44564
0.396871
0.332007
0.165355
0.171222
0.267489
0.482311
0.135527
0.165878
0.369483
0.430326
0.388001
0.48598
0.154657
0.593234
0.208132
0.201219
0.388234
0.186472
0.400637
0.494882
0.601472
0.16941
0.169437
0.489927
0.458045
0.394483
0.139668
0.158669
0.479917
0.490974
0.321134
0.501501
0.649667
0.758816
0.238982
0.195057
0.22915
0.168486
0.180261
0.485403
0.199391
0.477452
0.417925
0.425244
0.798673
0.470346
0.144723
0.164378
0.172748
0.495152
0.50043
0.538247
0.210917
0.181621
0.250655
0.399191
0.237178
0.951968
0.586094
0.445343
0.5502
0.196224
0.207413
0.170768
0.573886
0.238212
0.330363
0.606321
0.505422
0.59789
0.151786
0.572506
0.180089
0.242426
0.187908
0.264409
0.579709
0.476045
0.564081
0.409713
0.214
0.155859
0.1772
0.717762
0.222161
0.491067
0.224397
0.601258
0.479486
0.648032
0.660483
0.265949
0.196985
0.551881
0.219536
0.603665
0.809284
0.162865
0.185378
0.31226
0.594366
0.194625
0.377466
0.475909
0.547687
0.261583
0.527286
0.209314
0.256476
0.68031
0.168718
0.192441
0.212229
0.746512
0.714054
0.220384
0.567634
0.592705
0.793394
0.463437
0.250535
0.321108
0.544284
0.657287
0.397445
0.298064
0.68233
0.175623
0.210791
0.261579
0.76862
0.26738
0.202446
0.644045
0.509561
0.743704
0.232806
0.219955
0.586684
0.813488
0.868637
0.290193
0.690669
0.224287
0.213479
0.443198
0.186526
0.322156
0.298348
0.234175
0.763981
0.277109
0.355043
0.61482
0.551103
0.539892
0.255353
0.518405
0.855394
0.448646
0.808532
0.195181
0.256033
0.668242
0.239154
0.785428
0.658783
0.236651
0.537305
0.231704
0.352818
0.360922
0.299438
0.647871
0.470482
0.291958
0.205105
0.247103
0.810471
0.301694
0.246853
0.810126
0.540486
1
0.4416
0.467868
0.534209
0.352331
0.271293
0.369353
0.215198
0.53633
0.255591
0.295741
0.273494
0.799461
0.554212
0.980294
0.92356
0.634328
0.672903
0.394693
0.975563
0.33938
0.405372
0.456683
0.553228
0.228731
0.268991
0.31432
0.362686
0.563145
0.436833
0.277672
0.308613
0.955343
0.451084
0.432938
0.362222
0.510708
0.719021
0.240148
0.763259
0.297864
0.781067
0.44766
0.299113
0.749972
0.445772
0.436314
0.818236
0.412835
0.315882
0.377659
0.51762
0.255238
0.372857
0.526649
0.845353
0.431974
0.495084
0.726562
0.683656
0.79543
0.339927
0.814045
0.586988
0.329262
0.443341
0.270456
0.496445
0.571455
0.768123
0.406134
0.597511
0.721754
0.435867
0.778064
0.448216
0.368397
0.349974
0.395621
0.6302
0.285569
0.52998
0.351752
0.414151
0.593102
0.384656
0.425757
0.466588
0.549068
0.649434
0.747801
0.425876
0.466245
0.302682
0.430785
0.281082
0.294969
0.584385
0.364764
0.50585
0.320201
0.653233
0.405349
0.572348
0.644292
0.611619
0.589102
0.534413
0.538117
0.475723
0.475514
0.314012
0.228635
0.449587
0.329722
0.607697
0.329193
0.416059
0.228356
0.257358
0.492876
0.547674
0.402882
0.367246
0.202894
0.515515
0.501616
0.423158
0.294978
0.219198
0.689397
0.361921
0.342819
0.512117
0.498384
0.259151
0.502643
0.53586
0.158138
0.398319
0.622421
0.532342
0.542501
0.315745
0.534218
0.161291
0.200146
0.152246
0.415542
0.667427
0.476698
0.489452
0.195607
0.286447
0.230846
0.147803
0.125367
0.382246
0.58056
0.434336
0.485134
0.384123
0.243245
0.457142
0.610935
0.459771
0.31994
0.129697
0.162751
0.287262
0.370643
0.15686
0.100672
0.580179
0.100718
0.239874
0.445475
0.451897
0.109247
0.103141
0.450689
0.609686
0.44611
0.164441
0.0778848
0.361368
0.305619
0.212047
0.385102
0.463298
0.430644
0.111059
0.0790516
0.0764544
0.120095
0.16328
0.274101
0.304054
0.0931249
0.185606
0.420752
0.0620005
0.114308
0.074512
0.0663783
0.219256
0.292781
0.635435
0.225369
0.0611354
0.113868
0.41213
0.360014
0.08409
0.0562314
0.0793164
0.143625
0.772263
0.618468
0.138731
0.0640939
0.404596
0.0649503
0.0540899
0.404134
0.167522
0.100726
0.0526218
0.0693944
0.0818775
0.108855
0.503957
0.22828
0.210808
0.551389
0.545479
0.397475
0.0707873
0.0890758
0.134241
0.0574536
0.149649
0.288209
0.392044
0.391098
0.126968
0.10899
0.32675
0.266811
0.0584399
0.0636778
0.387798
0.100484
0.0740114
0.164001
0.368182
0.0737475
0.236426
0.335341
0.423609
0.0842249
0.0666087
0.30241
0.249328
0.0592734
0.107056
0.180317
0.147492
0.0788473
0.197717
0.479043
0.120372
0.0689506
0.0623468
0.0624413
0.0691507
0.0886971
0.117761
0.537828
0.0943501
0.0749223
0.0665041
0.148452
0.123136
0.469126
0.0837875
0.0659241
0.0699063
0.0682307
0.0653806
0.242965
0.0656916
0.0817873
0.243174
0.102827
0.0757364
0.0676544
0.0678699
0.0697669
0.0878815
0.201649
0.672211
0.77663
0.24166
0.176847
0.139828
0.434401
0.114114
0.154838
0.303455
0.145137
0.0719012
0.0704924
0.0889816
0.0691301
0.0676582
0.0683567
0.0681427
0.701308
0.457158
0.0670539
0.0930941
0.105744
0.0879812
0.0704074
0.35898
0.772506
0.0694326
0.0686083
0.0681143
0.373089
0.0681861
0.0714813
0.146767
0.186633
0.26181
0.236813
0.0678408
0.0919714
0.241783
0.085585
0.0695175
0.0680463
0.0685404
0.0771722
0.120973
0.499357
0.0717618
0.102883
0.373162
0.0681865
0.0684878
0.106549
0.0819229
0.0685964
0.158241
0.0701323
0.536546
0.0689389
0.0726598
0.0836537
0.102055
0.0789754
0.0681167
0.0693357
0.122713
0.141597
0.169986
0.578126
0.0679626
0.102352
0.265413
0.693632
0.0694692
0.0690154
0.203707
0.239103
0.0959466
0.0703724
0.0740445
0.0853679
0.19973
0.0681201
0.493583
0.152782
0.086152
0.0784507
0.0703142
0.0760109
0.314498
0.412916
0.652867
0.0705718
0.0717932
0.835433
0.349681
0.129187
0.0769844
0.0690063
0.0918415
0.106664
0.521589
0.0698894
0.0767136
0.0722427
0.151079
0.26976
0.121971
0.0706715
0.0740368
0.126584
0.0708004
0.069425
0.115492
0.102594
0.0860908
0.0789499
0.198533
0.0737748
0.241532
0.182151
0.0840438
0.0713996
0.0751959
0.0763725
0.0811953
0.10128
0.625712
0.609799
0.0720597
0.156077
0.106884
0.0820595
0.071239
0.0707568
0.772729
0.580021
0.251338
0.203211
0.163157
0.0837463
0.126778
0.425332
0.0732888
0.0773246
0.287857
0.0789614
0.079725
0.157597
0.0738967
0.11061
0.0808806
0.0728449
0.0857433
0.100088
0.373337
0.0952567
0.0746249
0.0819692
0.143976
0.269429
0.192067
0.0833383
0.883775
0.476262
0.147986
0.0741733
0.0784108
0.160703
0.082977
0.0881256
0.106845
0.199954
0.0947957
0.0856448
0.0756431
0.0854354
0.150997
0.180036
0.110792
0.147907
0.0781997
0.0873559
0.0901862
0.172699
0.205179
0.340932
0.720683
0.252045
0.132197
0.0821484
0.232049
0.0775741
0.0887683
0.119649
0.0930246
0.121235
0.093111
0.0790114
0.0852832
0.0891528
0.141666
0.0918342
0.0972416
0.629577
0.373735
0.0814992
0.219518
0.204743
0.114996
0.0891213
0.0941159
0.0939173
0.824462
0.242514
0.17764
0.0812215
0.437891
0.872849
0.0862818
0.101174
0.117157
0.155869
0.0969705
0.166334
0.209688
0.533704
0.0854321
0.0930232
0.126902
0.120604
0.083727
0.0995186
0.151594
0.345022
0.124326
0.0924048
0.102819
0.102288
0.705113
0.106226
0.0883508
0.106914
0.192542
0.228308
0.0861931
0.170461
0.688253
0.176919
0.092417
0.0974043
0.639288
0.279591
0.106603
0.127041
0.163383
0.114031
0.104561
0.340739
0.216064
0.0888316
0.13271
0.140405
0.110455
0.110089
0.112567
0.135807
0.269672
0.599964
0.177218
0.706481
0.726576
0.0907571
0.158325
0.134857
0.107905
0.0989105
0.115756
0.116556
0.156587
0.101207
0.801874
0.115557
0.725873
0.0947895
0.118294
0.1324
0.126302
0.119305
0.630457
0.115225
0.106849
0.122669
0.0902666
0.565446
0.140421
0.130529
0.274932
0.386281
0.165346
0.210722
0.129163
0.0992275
0.332367
0.119782
0.124482
0.120169
0.106886
0.101311
0.112727
0.223181
0.126435
0.116921
0.315581
0.149375
0.129029
0.415396
0.104748
0.0761173
0.635668
0.116188
0.0945392
0.138338
0.226027
0.103654
0.109738
0.623523
0.136901
0.106378
0.0967072
0.144173
0.119985
0.679614
0.622077
0.109359
0.138166
0.130824
0.0858943
0.0643137
0.231532
0.179964
0.189087
0.0877223
0.454757
0.2274
0.093795
0.0718091
0.315966
0.465374
0.131489
0.112463
0.121412
0.074758
0.631932
0.12198
0.0743771
0.654542
0.14727
0.562497
0.175795
0.138521
0.0529013
0.508556
0.142774
0.0865566
0.0683713
0.0627882
0.060439
0.353203
0.657135
0.126966
0.105853
0.158092
0.581994
0.555649
0.236215
0.115304
0.586905
0.148018
0.0527854
0.485524
0.371112
0.0474789
0.180246
0.238187
0.311005
0.136524
0.0612668
0.0556551
0.0540838
0.114197
0.0711395
0.20627
0.133131
0.115947
0.112262
0.402282
0.0555597
0.0527301
0.0509685
0.0459174
0.133294
0.270761
0.636812
0.116346
0.522677
0.48306
0.0887737
0.171055
0.509375
0.422751
0.119107
0.111745
0.0636133
0.0545122
0.0547588
0.0536205
0.0465461
0.342333
0.509619
0.560176
0.18224
0.562685
0.102418
0.0947346
0.0528155
0.278218
0.0739746
0.0604267
0.0490987
0.105406
0.476569
0.136677
0.108741
0.0896817
0.0812587
0.231339
0.0889796
0.0628353
0.0907202
0.066472
0.0655663
0.0584181
0.188909
0.23129
0.0780478
0.0664864
0.123726
0.505297
0.298821
0.0710139
0.54553
0.489251
0.169424
0.0686583
0.0526445
0.0915906
0.560512
0.477921
0.0802436
0.255948
0.383201
0.465622
0.451235
0.404551
0.132466
0.0706559
0.0706039
0.326901
0.095243
0.0741093
0.064586
0.0646519
0.0720671
0.432264
0.110615
0.0653895
0.0622089
0.0530352
0.10826
0.505478
0.485054
0.187069
0.0687186
0.0697084
0.0685864
0.140799
0.363082
0.307926
0.434598
0.4006
0.0843911
0.0590115
0.0748882
0.0757178
0.321937
0.200662
0.0596374
0.0574146
0.0775333
0.25926
0.139743
0.119629
0.0969881
0.062393
0.0668297
0.0486556
0.416939
0.212988
0.0719197
0.141573
0.254484
0.231858
0.0533094
0.0692613
0.0690894
0.048364
0.196549
0.14563
0.0597751
0.0547105
0.0578781
0.0733936
0.068119
0.0880148
0.0958892
0.0778163
0.156639
0.052828
0.0702122
0.0384536
0.150997
0.0591448
0.0480324
0.0381997
0.0541164
0.118588
0.0604364
0.0510695
0.0531635
0.10965
0.101939
0.0775626
0.0656666
0.050217
0.0480241
0.0311188
0.0392264
0.0692699
0.0474293
0.0514249
0.0593474
0.0615761
0.0359248
0.0299776
0.0468169
0.0559458
0.0444466
0.0318077
0.051112
0.0685864
0.0868762
0.127094
0.154992
0.185988
0.241777
0.297568
0.359553
0.445384
0.485836
0.465241
0.446572
0.430958
0.41866
0.406207
0.396073
0.3895
0.381999
0.377066
0.370954
0.36719
0.3655
0.357532
0.335406
0.318933
0.300137
0.282458
0.25916
0.23438
0.213065
0.192425
0.173795
0.152734
0.133656
0.118746
0.101965
0.0873685
0.0768156
0.0669619
0.056725
0.0495559
0.0459922
0.0426138
0.0423918
0.0441863
0.0465194
0.0493192
0.0543221
0.053272
0.0458899
0.0329251
0.0239643
