# vtk DataFile Version 1.0
Unstructured Grid Example
ASCII

DATASET UNSTRUCTURED_GRID
POINTS 485 float
45 598 0
49 593 0
45 592 0
45 588 0
51 588 0
53 585 0
45 584 0
54 581 0
46 579 0
56 577 0
46 575 0
57 573 0
46 570 0
59 569 0
46 565 0
60 565 0
46 561 0
63 559 0
66 554 0
47 553 0
47 547 0
69 547 0
47 541 0
74 540 0
48 536 0
76 535 0
80 530 0
49 527 0
84 526 0
49 521 0
89 520 0
94 516 0
50 512 0
99 509 0
104 505 0
51 503 0
108 499 0
182 496 0
52 495 0
112 494 0
176 493 0
180 492 0
116 491 0
170 491 0
53 489 0
166 489 0
176 489 0
162 488 0
116 486 0
158 486 0
173 486 0
108 485 0
112 485 0
154 485 0
104 484 0
99 483 0
149 483 0
94 482 0
170 482 0
54 481 0
84 480 0
142 480 0
90 479 0
95 478 0
99 478 0
105 478 0
109 478 0
113 478 0
118 478 0
137 478 0
166 478 0
123 477 0
132 477 0
55 475 0
162 474 0
159 471 0
56 468 0
158 465 0
162 460 0
302 460 0
58 459 0
164 456 0
289 454 0
59 453 0
295 453 0
167 452 0
285 451 0
278 449 0
289 449 0
172 448 0
275 447 0
60 446 0
271 446 0
284 446 0
267 444 0
280 443 0
176 442 0
264 442 0
259 440 0
275 439 0
255 438 0
182 437 0
62 436 0
252 436 0
270 436 0
266 434 0
186 433 0
245 433 0
263 432 0
241 431 0
260 430 0
184 429 0
235 429 0
64 428 0
180 428 0
256 428 0
230 427 0
175 426 0
253 426 0
168 424 0
223 424 0
159 423 0
163 423 0
250 423 0
447 423 0
66 422 0
152 421 0
148 420 0
216 420 0
247 420 0
140 419 0
144 419 0
136 418 0
211 418 0
440 418 0
132 417 0
242 417 0
67 416 0
121 416 0
126 416 0
207 416 0
238 415 0
113 414 0
149 413 0
153 413 0
157 413 0
164 413 0
170 413 0
176 413 0
180 413 0
186 413 0
194 413 0
199 413 0
435 413 0
108 412 0
118 412 0
124 412 0
131 412 0
135 412 0
140 412 0
144 412 0
234 412 0
102 411 0
230 410 0
70 408 0
424 408 0
430 408 0
226 407 0
417 403 0
422 402 0
229 401 0
72 400 0
413 400 0
234 398 0
409 398 0
417 398 0
405 396 0
414 395 0
74 394 0
238 394 0
403 393 0
400 391 0
411 391 0
397 389 0
408 389 0
245 387 0
404 387 0
77 385 0
392 385 0
402 384 0
389 383 0
399 382 0
253 381 0
385 381 0
381 379 0
396 379 0
258 376 0
378 376 0
391 375 0
375 374 0
80 373 0
389 372 0
265 371 0
370 371 0
385 369 0
269 367 0
366 367 0
83 366 0
380 365 0
275 364 0
361 364 0
357 362 0
377 362 0
279 361 0
86 359 0
354 359 0
374 359 0
284 358 0
349 356 0
370 356 0
292 355 0
367 353 0
343 352 0
297 351 0
363 350 0
90 349 0
340 349 0
300 348 0
335 347 0
358 346 0
300 344 0
293 343 0
330 343 0
93 341 0
287 341 0
354 341 0
277 340 0
282 340 0
326 340 0
270 338 0
349 338 0
261 337 0
265 337 0
321 337 0
313 336 0
253 335 0
257 335 0
309 335 0
248 334 0
305 334 0
344 334 0
502 334 0
294 333 0
298 333 0
237 332 0
242 332 0
289 332 0
233 331 0
279 331 0
283 331 0
99 330 0
269 330 0
275 330 0
226 329 0
265 329 0
338 329 0
493 329 0
498 329 0
219 328 0
255 328 0
260 328 0
215 327 0
249 327 0
489 327 0
208 326 0
242 326 0
202 325 0
231 325 0
238 325 0
495 325 0
198 324 0
227 324 0
340 324 0
221 323 0
209 322 0
214 322 0
484 322 0
491 322 0
180 321 0
201 321 0
205 321 0
104 320 0
195 320 0
188 319 0
479 319 0
488 319 0
346 318 0
160 317 0
171 317 0
475 317 0
350 315 0
107 314 0
152 314 0
471 314 0
484 314 0
146 313 0
355 311 0
468 311 0
482 311 0
110 308 0
463 308 0
478 308 0
359 307 0
459 305 0
475 305 0
114 303 0
365 302 0
454 302 0
472 301 0
370 299 0
117 297 0
448 297 0
469 297 0
376 296 0
382 294 0
445 294 0
465 293 0
441 292 0
388 290 0
122 289 0
438 289 0
461 288 0
393 287 0
434 287 0
397 285 0
458 285 0
126 284 0
427 283 0
401 282 0
455 282 0
131 279 0
452 279 0
397 278 0
422 278 0
393 277 0
134 275 0
390 275 0
416 275 0
449 275 0
139 274 0
386 273 0
409 273 0
446 272 0
381 270 0
402 270 0
140 268 0
377 268 0
443 268 0
398 267 0
394 266 0
373 265 0
446 265 0
390 264 0
367 263 0
146 262 0
384 262 0
450 262 0
362 260 0
381 260 0
454 260 0
377 259 0
151 257 0
357 257 0
374 257 0
353 255 0
461 255 0
368 254 0
156 252 0
349 252 0
362 252 0
466 252 0
344 250 0
359 250 0
355 249 0
341 247 0
350 247 0
472 247 0
163 246 0
336 245 0
347 245 0
332 243 0
341 243 0
478 243 0
328 241 0
337 241 0
172 239 0
332 239 0
485 238 0
326 236 0
321 233 0
494 230 0
186 229 0
312 229 0
304 226 0
504 223 0
199 221 0
209 217 0
514 213 0
222 211 0
232 206 0
518 206 0
243 201 0
254 198 0
522 197 0
261 195 0
273 191 0
280 190 0
525 189 0
287 188 0
294 186 0
300 184 0
528 183 0
309 182 0
316 181 0
325 179 0
334 177 0
342 176 0
530 176 0
354 174 0
363 172 0
376 170 0
378 170 0
389 169 0
535 169 0
407 167 0
419 166 0
432 165 0
540 165 0
448 164 0
460 163 0
472 163 0
484 162 0
494 162 0
502 161 0
508 161 0
514 161 0
523 160 0
545 160 0
548 158 0
530 157 0
536 154 0
551 154 0
542 152 0
555 151 0
545 150 0
549 148 0
560 147 0
553 146 0
563 144 0
558 143 0
568 138 0
719 55 0
712 53 0
726 53 0
703 51 0
732 51 0
697 50 0
692 49 0
739 49 0
686 47 0
680 46 0
743 44 0
683 41 0
744 40 0
686 37 0
742 36 0
692 32 0
738 32 0
697 26 0
732 26 0
700 22 0
727 22 0
706 18 0
720 18 0
711 17 0
CELLS 485 970
1 0
1 1
1 2
1 3
1 4
1 5
1 6
1 7
1 8
1 9
1 10
1 11
1 12
1 13
1 14
1 15
1 16
1 17
1 18
1 19
1 20
1 21
1 22
1 23
1 24
1 25
1 26
1 27
1 28
1 29
1 30
1 31
1 32
1 33
1 34
1 35
1 36
1 37
1 38
1 39
1 40
1 41
1 42
1 43
1 44
1 45
1 46
1 47
1 48
1 49
1 50
1 51
1 52
1 53
1 54
1 55
1 56
1 57
1 58
1 59
1 60
1 61
1 62
1 63
1 64
1 65
1 66
1 67
1 68
1 69
1 70
1 71
1 72
1 73
1 74
1 75
1 76
1 77
1 78
1 79
1 80
1 81
1 82
1 83
1 84
1 85
1 86
1 87
1 88
1 89
1 90
1 91
1 92
1 93
1 94
1 95
1 96
1 97
1 98
1 99
1 100
1 101
1 102
1 103
1 104
1 105
1 106
1 107
1 108
1 109
1 110
1 111
1 112
1 113
1 114
1 115
1 116
1 117
1 118
1 119
1 120
1 121
1 122
1 123
1 124
1 125
1 126
1 127
1 128
1 129
1 130
1 131
1 132
1 133
1 134
1 135
1 136
1 137
1 138
1 139
1 140
1 141
1 142
1 143
1 144
1 145
1 146
1 147
1 148
1 149
1 150
1 151
1 152
1 153
1 154
1 155
1 156
1 157
1 158
1 159
1 160
1 161
1 162
1 163
1 164
1 165
1 166
1 167
1 168
1 169
1 170
1 171
1 172
1 173
1 174
1 175
1 176
1 177
1 178
1 179
1 180
1 181
1 182
1 183
1 184
1 185
1 186
1 187
1 188
1 189
1 190
1 191
1 192
1 193
1 194
1 195
1 196
1 197
1 198
1 199
1 200
1 201
1 202
1 203
1 204
1 205
1 206
1 207
1 208
1 209
1 210
1 211
1 212
1 213
1 214
1 215
1 216
1 217
1 218
1 219
1 220
1 221
1 222
1 223
1 224
1 225
1 226
1 227
1 228
1 229
1 230
1 231
1 232
1 233
1 234
1 235
1 236
1 237
1 238
1 239
1 240
1 241
1 242
1 243
1 244
1 245
1 246
1 247
1 248
1 249
1 250
1 251
1 252
1 253
1 254
1 255
1 256
1 257
1 258
1 259
1 260
1 261
1 262
1 263
1 264
1 265
1 266
1 267
1 268
1 269
1 270
1 271
1 272
1 273
1 274
1 275
1 276
1 277
1 278
1 279
1 280
1 281
1 282
1 283
1 284
1 285
1 286
1 287
1 288
1 289
1 290
1 291
1 292
1 293
1 294
1 295
1 296
1 297
1 298
1 299
1 300
1 301
1 302
1 303
1 304
1 305
1 306
1 307
1 308
1 309
1 310
1 311
1 312
1 313
1 314
1 315
1 316
1 317
1 318
1 319
1 320
1 321
1 322
1 323
1 324
1 325
1 326
1 327
1 328
1 329
1 330
1 331
1 332
1 333
1 334
1 335
1 336
1 337
1 338
1 339
1 340
1 341
1 342
1 343
1 344
1 345
1 346
1 347
1 348
1 349
1 350
1 351
1 352
1 353
1 354
1 355
1 356
1 357
1 358
1 359
1 360
1 361
1 362
1 363
1 364
1 365
1 366
1 367
1 368
1 369
1 370
1 371
1 372
1 373
1 374
1 375
1 376
1 377
1 378
1 379
1 380
1 381
1 382
1 383
1 384
1 385
1 386
1 387
1 388
1 389
1 390
1 391
1 392
1 393
1 394
1 395
1 396
1 397
1 398
1 399
1 400
1 401
1 402
1 403
1 404
1 405
1 406
1 407
1 408
1 409
1 410
1 411
1 412
1 413
1 414
1 415
1 416
1 417
1 418
1 419
1 420
1 421
1 422
1 423
1 424
1 425
1 426
1 427
1 428
1 429
1 430
1 431
1 432
1 433
1 434
1 435
1 436
1 437
1 438
1 439
1 440
1 441
1 442
1 443
1 444
1 445
1 446
1 447
1 448
1 449
1 450
1 451
1 452
1 453
1 454
1 455
1 456
1 457
1 458
1 459
1 460
1 461
1 462
1 463
1 464
1 465
1 466
1 467
1 468
1 469
1 470
1 471
1 472
1 473
1 474
1 475
1 476
1 477
1 478
1 479
1 480
1 481
1 482
1 483
1 484
CELL_TYPES 485
1 1 1 1 1 1 1 1 1 1 1 1 1 1 1 1 1 1 1 1 1 1 1 1 1 1 1 1 1 1 1 1 1 1 1 1 1 1 1 1 1 1 1 1 1 1 1 1 1 1 1 1 1 1 1 1 1 1 1 1 1 1 1 1 1 1 1 1 1 1 1 1 1 1 1 1 1 1 1 1 1 1 1 1 1 1 1 1 1 1 1 1 1 1 1 1 1 1 1 1 1 1 1 1 1 1 1 1 1 1 1 1 1 1 1 1 1 1 1 1 1 1 1 1 1 1 1 1 1 1 1 1 1 1 1 1 1 1 1 1 1 1 1 1 1 1 1 1 1 1 1 1 1 1 1 1 1 1 1 1 1 1 1 1 1 1 1 1 1 1 1 1 1 1 1 1 1 1 1 1 1 1 1 1 1 1 1 1 1 1 1 1 1 1 1 1 1 1 1 1 1 1 1 1 1 1 1 1 1 1 1 1 1 1 1 1 1 1 1 1 1 1 1 1 1 1 1 1 1 1 1 1 1 1 1 1 1 1 1 1 1 1 1 1 1 1 1 1 1 1 1 1 1 1 1 1 1 1 1 1 1 1 1 1 1 1 1 1 1 1 1 1 1 1 1 1 1 1 1 1 1 1 1 1 1 1 1 1 1 1 1 1 1 1 1 1 1 1 1 1 1 1 1 1 1 1 1 1 1 1 1 1 1 1 1 1 1 1 1 1 1 1 1 1 1 1 1 1 1 1 1 1 1 1 1 1 1 1 1 1 1 1 1 1 1 1 1 1 1 1 1 1 1 1 1 1 1 1 1 1 1 1 1 1 1 1 1 1 1 1 1 1 1 1 1 1 1 1 1 1 1 1 1 1 1 1 1 1 1 1 1 1 1 1 1 1 1 1 1 1 1 1 1 1 1 1 1 1 1 1 1 1 1 1 1 1 1 1 1 1 1 1 1 1 1 1 1 1 1 1 1 1 1 1 1 1 1 1 1 1 1 1 1 1 1 1 1 1 1 1 1 1 1 1 1 1 1 1 1 1 1 1 1 1 1 1 1 1 1 1 1 1 1 1 1 1 1 1 1 1 1 1 1 1 1 
CELL_DATA 485
COLOR_SCALARS lut 1
0.169274
0.153555
0.154262
0.149325
0.147866
0.152769
0.15026
0.155521
0.153145
0.166802
0.162495
0.175154
0.177145
0.190585
0.193661
0.201647
0.207498
0.225878
0.249264
0.232382
0.255843
0.278685
0.279838
0.316383
0.297789
0.339141
0.368931
0.334434
0.392451
0.36066
0.408199
0.397284
0.396033
0.34204
0.296807
0.416881
0.232699
0.261109
0.403731
0.188091
0.194391
0.222366
0.1781
0.165991
0.380228
0.161766
0.182499
0.171073
0.151966
0.181427
0.165257
0.132886
0.136304
0.19895
0.134597
0.147917
0.219049
0.176
0.162602
0.355685
0.277296
0.243444
0.212147
0.17273
0.152206
0.139528
0.140121
0.146429
0.163504
0.252371
0.167616
0.194529
0.244548
0.350238
0.179666
0.19397
0.36155
0.222537
0.240561
0.462292
0.396928
0.260014
0.254308
0.430278
0.333712
0.272302
0.201483
0.159257
0.242456
0.267463
0.147729
0.469292
0.146497
0.187002
0.145797
0.162133
0.229394
0.144871
0.151015
0.150858
0.155208
0.195706
0.487507
0.156669
0.146988
0.146234
0.189492
0.16756
0.149389
0.172655
0.153337
0.172838
0.1845
0.454566
0.162872
0.156137
0.193186
0.160562
0.16076
0.158614
0.206915
0.154037
0.154883
0.170122
0.694038
0.421828
0.143819
0.139809
0.223794
0.179277
0.138111
0.136731
0.136619
0.243451
0.561981
0.138961
0.180466
0.393079
0.188796
0.15592
0.257028
0.176572
0.268385
0.139591
0.144245
0.150334
0.162497
0.173926
0.186651
0.196706
0.216255
0.24884
0.264796
0.458351
0.321026
0.215722
0.167884
0.142198
0.137386
0.137391
0.139751
0.17282
0.362826
0.16905
0.366711
0.269211
0.357576
0.17807
0.182501
0.223173
0.196314
0.366123
0.155918
0.225095
0.146106
0.171114
0.144307
0.154103
0.380892
0.274068
0.13738
0.13804
0.148276
0.13988
0.142023
0.365985
0.136083
0.424501
0.14185
0.140575
0.14474
0.139914
0.428322
0.151485
0.159158
0.143514
0.429806
0.158632
0.146873
0.162317
0.515006
0.154557
0.389439
0.169822
0.156868
0.350755
0.169272
0.576506
0.16151
0.302402
0.17652
0.183953
0.167372
0.266489
0.636349
0.183359
0.173549
0.229065
0.191264
0.176625
0.192324
0.182503
0.198978
0.169301
0.184874
0.686837
0.197898
0.161797
0.208619
0.188341
0.148136
0.135958
0.211227
0.659886
0.136502
0.1978
0.143135
0.138883
0.216657
0.14027
0.190675
0.14318
0.139706
0.226673
0.214849
0.139519
0.136993
0.197995
0.1376
0.181772
0.181664
0.313422
0.153474
0.16158
0.131007
0.130455
0.15271
0.128448
0.147773
0.152204
0.566574
0.140313
0.147834
0.125826
0.140898
0.179626
0.196772
0.234739
0.129876
0.137084
0.14129
0.133193
0.135825
0.170272
0.150323
0.131847
0.183683
0.125569
0.131283
0.190967
0.220715
0.12738
0.197391
0.13015
0.146405
0.137259
0.146551
0.160003
0.468082
0.191605
0.165065
0.479852
0.258181
0.357053
0.148083
0.147791
0.256013
0.508214
0.533867
0.156363
0.300431
0.435207
0.455898
0.162346
0.146542
0.42382
0.354854
0.1646
0.152325
0.401558
0.176787
0.154
0.390225
0.184227
0.159479
0.378639
0.402956
0.197481
0.170044
0.378744
0.362125
0.208376
0.181606
0.331222
0.282131
0.211656
0.190295
0.222772
0.225157
0.331016
0.225583
0.203871
0.187394
0.236304
0.171365
0.207933
0.286626
0.249404
0.164396
0.209017
0.228708
0.2055
0.14335
0.246121
0.143128
0.201011
0.143568
0.228904
0.197761
0.198818
0.146769
0.191902
0.189555
0.147312
0.164092
0.214895
0.147757
0.193117
0.161961
0.153273
0.142102
0.200532
0.151678
0.144534
0.299273
0.145096
0.226999
0.139541
0.146143
0.264821
0.140473
0.398413
0.136129
0.141239
0.137036
0.356385
0.138947
0.503978
0.13599
0.133221
0.425009
0.145047
0.135157
0.132311
0.148481
0.134118
0.511313
0.639731
0.172706
0.139548
0.205244
0.150493
0.590353
0.251992
0.169329
0.780433
0.208868
0.665318
0.284839
0.359032
0.697862
0.900514
0.455926
0.484686
0.665319
0.975451
1
0.600349
0.934338
0.834985
0.547382
0.726671
0.629719
0.472113
0.575802
0.502569
0.472951
0.398935
0.455963
0.452922
0.46155
0.339882
0.489639
0.518434
0.561615
0.606478
0.645709
0.268505
0.702534
0.745192
0.806734
0.815404
0.861801
0.20895
0.929877
0.936015
0.891514
0.185779
0.818652
0.757002
0.681437
0.588561
0.494312
0.417473
0.360261
0.303685
0.231223
0.164184
0.160183
0.194379
0.174656
0.151326
0.157103
0.15912
0.154391
0.153398
0.192194
0.161711
0.229831
0.194898
0.324518
0.348752
0.340097
0.312798
0.292538
0.272482
0.250216
0.216551
0.237391
0.191163
0.20705
0.217435
0.200931
0.216714
0.2155
0.225394
0.24374
0.242892
0.262895
0.261622
0.258384
0.254922
0.23519
0.231824
0.223702
