# vtk DataFile Version 1.0
Unstructured Grid Example
ASCII

DATASET UNSTRUCTURED_GRID
POINTS 696 float
0 29 0
377 1 0
214 322 0
357 362 0
77 611 0
393 277 0
762 394 0
377 268 0
502 161 0
726 1 0
180 321 0
81 1 0
273 191 0
349 252 0
242 417 0
219 328 0
123 477 0
64 428 0
0 483 0
45 592 0
0 593 0
37 611 0
69 547 0
62 611 0
47 541 0
132 477 0
450 262 0
378 170 0
409 273 0
414 395 0
482 311 0
495 325 0
762 310 0
478 243 0
703 51 0
762 30 0
563 144 0
551 154 0
509 1 0
430 1 0
697 26 0
701 1 0
756 1 0
0 63 0
0 23 0
0 114 0
0 320 0
110 308 0
0 257 0
107 1 0
6 1 0
186 229 0
209 217 0
232 206 0
294 186 0
209 322 0
221 323 0
188 319 0
114 303 0
269 330 0
253 335 0
294 333 0
305 334 0
279 361 0
300 344 0
265 371 0
261 337 0
153 413 0
124 412 0
118 412 0
231 325 0
99 330 0
0 355 0
77 385 0
0 396 0
55 475 0
0 469 0
58 459 0
99 478 0
109 478 0
95 478 0
54 481 0
51 503 0
45 584 0
0 540 0
49 593 0
47 611 0
53 585 0
51 611 0
49 527 0
104 505 0
142 480 0
167 452 0
154 485 0
112 485 0
269 611 0
179 611 0
289 454 0
285 451 0
289 449 0
176 442 0
172 448 0
163 423 0
159 423 0
176 413 0
211 418 0
247 420 0
250 423 0
373 265 0
381 260 0
384 262 0
390 264 0
397 278 0
388 290 0
349 338 0
326 340 0
354 341 0
367 353 0
374 359 0
351 611 0
399 382 0
389 383 0
391 375 0
385 369 0
413 400 0
405 396 0
422 402 0
460 611 0
759 611 0
658 611 0
762 544 0
762 506 0
484 322 0
491 322 0
468 311 0
402 384 0
427 283 0
438 289 0
441 292 0
448 297 0
469 297 0
560 147 0
762 259 0
558 143 0
568 138 0
549 148 0
545 150 0
545 160 0
540 165 0
362 252 0
355 249 0
353 255 0
328 241 0
334 177 0
376 170 0
460 163 0
523 160 0
680 46 0
692 49 0
591 1 0
490 1 0
393 1 0
309 1 0
449 1 0
664 1 0
693 1 0
711 17 0
727 22 0
719 55 0
762 60 0
762 41 0
762 34 0
738 32 0
762 5 0
0 39 0
0 51 0
0 14 0
0 7 0
0 94 0
0 166 0
0 74 0
0 141 0
0 274 0
0 285 0
0 298 0
0 309 0
0 243 0
0 230 0
0 210 0
0 187 0
117 297 0
93 1 0
107 314 0
104 320 0
122 289 0
126 284 0
131 279 0
124 1 0
70 1 0
60 1 0
25 1 0
19 1 0
1 1 0
10 1 0
37 1 0
51 1 0
152 1 0
156 252 0
151 257 0
146 262 0
163 246 0
172 239 0
199 221 0
183 1 0
226 1 0
202 1 0
246 1 0
264 1 0
261 195 0
254 198 0
243 201 0
222 211 0
205 321 0
201 321 0
227 324 0
238 325 0
215 327 0
242 326 0
208 326 0
202 325 0
195 320 0
198 324 0
171 317 0
160 317 0
140 268 0
139 274 0
134 275 0
146 313 0
152 314 0
233 331 0
226 329 0
237 332 0
242 332 0
257 335 0
248 334 0
255 328 0
249 327 0
265 337 0
260 328 0
265 329 0
275 330 0
275 364 0
270 338 0
269 367 0
258 376 0
238 394 0
234 398 0
245 387 0
253 381 0
234 412 0
238 415 0
230 410 0
229 401 0
207 416 0
216 420 0
199 413 0
226 407 0
180 413 0
170 413 0
194 413 0
186 413 0
148 420 0
152 421 0
144 419 0
140 419 0
126 416 0
121 416 0
132 417 0
136 418 0
164 413 0
149 413 0
157 413 0
144 412 0
131 412 0
135 412 0
140 412 0
113 414 0
86 359 0
83 366 0
90 349 0
93 341 0
0 342 0
0 331 0
0 370 0
80 373 0
0 382 0
0 407 0
72 400 0
74 394 0
102 411 0
108 412 0
70 408 0
67 416 0
0 415 0
0 443 0
0 435 0
0 453 0
0 462 0
0 495 0
52 495 0
0 476 0
0 424 0
60 446 0
59 453 0
62 436 0
66 422 0
84 480 0
90 479 0
56 468 0
53 489 0
49 521 0
50 512 0
84 526 0
89 520 0
80 530 0
76 535 0
74 540 0
48 536 0
47 553 0
0 549 0
47 547 0
0 527 0
0 506 0
0 513 0
0 520 0
0 534 0
0 573 0
0 580 0
0 567 0
0 556 0
45 598 0
0 604 0
0 587 0
0 600 0
0 608 0
13 611 0
9 611 0
5 611 0
32 611 0
42 611 0
19 611 0
27 611 0
54 581 0
46 579 0
45 588 0
51 588 0
57 611 0
87 611 0
67 611 0
56 577 0
59 569 0
57 573 0
46 570 0
46 575 0
46 565 0
46 561 0
60 565 0
66 554 0
63 559 0
99 483 0
94 482 0
104 484 0
149 483 0
116 486 0
116 491 0
112 494 0
108 485 0
94 516 0
99 509 0
103 611 0
94 611 0
126 611 0
141 611 0
113 611 0
108 499 0
182 496 0
166 611 0
190 611 0
153 611 0
219 611 0
255 611 0
202 611 0
233 611 0
176 493 0
180 492 0
170 491 0
166 489 0
162 488 0
158 486 0
170 482 0
173 486 0
176 489 0
267 444 0
271 446 0
264 442 0
259 440 0
182 437 0
255 438 0
164 456 0
166 478 0
118 478 0
137 478 0
113 478 0
105 478 0
159 471 0
158 465 0
162 474 0
162 460 0
186 433 0
235 429 0
184 429 0
180 428 0
175 426 0
168 424 0
223 424 0
230 427 0
253 426 0
241 431 0
245 433 0
252 436 0
266 434 0
270 436 0
263 432 0
260 430 0
256 428 0
338 329 0
283 331 0
279 331 0
289 332 0
340 324 0
346 318 0
350 315 0
355 311 0
382 294 0
393 287 0
397 285 0
401 282 0
376 296 0
370 299 0
365 302 0
359 307 0
313 336 0
321 337 0
330 343 0
344 334 0
363 350 0
358 346 0
340 349 0
335 347 0
300 348 0
297 351 0
309 335 0
298 333 0
282 340 0
277 340 0
287 341 0
293 343 0
284 358 0
292 355 0
343 352 0
349 356 0
354 359 0
284 446 0
280 443 0
275 439 0
278 449 0
275 447 0
295 453 0
283 611 0
326 611 0
311 611 0
297 611 0
302 460 0
381 379 0
385 381 0
392 385 0
374 611 0
400 391 0
400 611 0
397 389 0
396 379 0
389 372 0
378 376 0
375 374 0
370 371 0
366 367 0
361 364 0
370 356 0
377 362 0
380 365 0
435 413 0
430 408 0
440 418 0
447 423 0
692 611 0
618 611 0
518 611 0
437 611 0
489 611 0
577 611 0
552 611 0
417 611 0
639 611 0
706 611 0
599 611 0
675 611 0
745 611 0
736 611 0
728 611 0
717 611 0
752 611 0
762 606 0
762 599 0
762 594 0
762 569 0
762 585 0
762 556 0
762 576 0
762 456 0
762 416 0
762 529 0
762 487 0
762 350 0
762 372 0
502 334 0
498 329 0
488 319 0
479 319 0
489 327 0
493 329 0
417 403 0
424 408 0
417 398 0
409 398 0
403 393 0
404 387 0
408 389 0
411 391 0
459 305 0
461 288 0
454 302 0
445 294 0
434 287 0
452 279 0
455 282 0
458 285 0
465 293 0
472 301 0
463 308 0
471 314 0
475 317 0
484 314 0
478 308 0
475 305 0
762 287 0
762 235 0
494 230 0
485 238 0
472 247 0
504 223 0
514 213 0
518 206 0
762 209 0
762 191 0
530 176 0
762 174 0
535 169 0
472 163 0
528 183 0
525 189 0
522 197 0
454 260 0
461 255 0
466 252 0
448 164 0
419 166 0
432 165 0
407 167 0
446 265 0
398 267 0
394 266 0
402 270 0
443 268 0
449 275 0
446 272 0
422 278 0
416 275 0
386 273 0
390 275 0
381 270 0
377 259 0
368 254 0
374 257 0
362 260 0
367 263 0
359 250 0
357 257 0
344 250 0
341 247 0
341 243 0
336 245 0
347 245 0
350 247 0
321 233 0
312 229 0
304 226 0
280 190 0
287 188 0
300 184 0
309 182 0
316 181 0
326 236 0
325 179 0
332 239 0
332 243 0
337 241 0
342 176 0
354 174 0
363 172 0
389 169 0
697 50 0
686 37 0
692 32 0
700 22 0
683 41 0
686 47 0
553 146 0
555 151 0
514 161 0
508 161 0
494 162 0
484 162 0
536 154 0
530 157 0
542 152 0
548 158 0
537 1 0
550 1 0
523 1 0
290 1 0
331 1 0
351 1 0
412 1 0
468 1 0
577 1 0
624 1 0
611 1 0
563 1 0
685 1 0
680 1 0
670 1 0
640 1 0
651 1 0
705 1 0
717 1 0
731 1 0
738 1 0
720 18 0
721 1 0
710 1 0
706 18 0
732 51 0
732 26 0
712 53 0
726 53 0
739 49 0
743 44 0
744 40 0
742 36 0
762 104 0
762 113 0
762 123 0
762 141 0
762 93 0
762 155 0
762 82 0
762 74 0
762 67 0
762 24 0
762 46 0
762 51 0
745 1 0
749 1 0
760 1 0
762 12 0
762 18 0

CELLS 1179 4716
3 190 194 237
3 49 45 178
3 443 597 113
3 529 534 6
3 224 56 52
3 140 556 568
3 440 454 439
3 111 110 109
3 569 535 31
3 443 447 599
3 667 166 664
3 209 208 232
3 300 286 299
3 222 2 55
3 221 53 615
3 568 584 33
3 616 615 12
3 626 623 621
3 107 427 106
3 135 487 489
3 56 15 226
3 432 65 431
3 408 271 272
3 355 23 85
3 327 22 24
3 342 354 350
3 373 16 25
3 412 94 79
3 340 85 356
3 342 83 354
3 331 320 89
3 276 69 68
3 384 93 90
3 585 26 589
3 600 7 108
3 650 153 162
3 586 39 584
3 591 28 446
3 110 7 109
3 274 271 408
3 445 5 112
3 567 30 557
3 490 120 485
3 528 505 514
3 133 536 31
3 638 574 578
3 567 557 33
3 36 144 572
3 648 145 38
3 564 534 570
3 145 636 637
3 571 142 564
3 144 36 143
3 8 640 641
3 161 629 1
3 633 40 658
3 680 673 168
3 634 157 662
3 692 695 691
3 200 0 44
3 190 47 182
3 285 237 233
3 52 206 213
3 201 44 176
3 49 197 45
3 212 2 51
3 45 197 51
3 618 619 615
3 212 197 206
3 649 162 619
3 214 216 12
3 611 627 628
3 56 226 2
3 231 267 10
3 52 56 2
3 252 59 250
3 222 223 230
3 223 222 229
3 186 194 48
3 237 194 195
3 245 248 243
3 151 442 607
3 56 224 240
3 437 250 436
3 61 465 438
3 441 114 440
3 475 98 97
3 462 152 624
3 468 63 467
3 466 462 64
3 458 459 453
3 463 464 437
3 255 257 106
3 60 66 65
3 252 253 247
3 243 248 66
3 229 222 228
3 274 408 415
3 282 67 280
3 281 279 103
3 68 69 287
3 278 274 25
3 227 241 225
3 225 239 70
3 193 71 184
3 289 287 291
3 288 299 294
3 297 74 295
3 310 75 81
3 80 314 299
3 307 318 76
3 318 77 316
3 286 69 276
3 371 369 413
3 313 77 306
3 376 79 94
3 78 80 299
3 323 309 316
3 316 77 313
3 310 81 18
3 75 318 316
3 309 82 308
3 378 316 370
3 336 338 362
3 359 360 357
3 330 328 329
3 356 85 23
3 355 83 87
3 340 19 85
3 355 87 358
3 352 359 87
3 86 340 88
3 335 331 327
3 324 321 322
3 324 320 321
3 374 25 411
3 408 272 92
3 103 101 92
3 403 475 385
3 416 409 398
3 477 99 3
3 375 94 374
3 410 16 373
3 326 325 324
3 386 385 96
3 390 97 482
3 253 65 66
3 394 101 406
3 431 65 251
3 494 482 477
3 97 98 99
3 102 100 101
3 426 428 107
3 433 107 258
3 396 400 395
3 422 104 267
3 422 267 421
3 272 103 92
3 102 101 103
3 279 268 423
3 257 240 239
3 420 421 270
3 226 262 228
3 474 403 402
3 14 255 106
3 106 427 14
3 106 257 258
3 600 109 7
3 597 111 590
3 603 149 601
3 109 587 111
3 597 599 111
3 629 27 154
3 588 589 26
3 589 112 5
3 442 116 441
3 590 111 589
3 445 136 552
3 462 624 62
3 440 114 454
3 453 459 115
3 457 458 454
3 461 62 439
3 118 117 443
3 456 470 116
3 497 117 118
3 455 456 450
3 123 113 138
3 123 491 483
3 480 481 482
3 552 138 444
3 545 135 546
3 492 123 483
3 543 29 124
3 484 122 121
3 490 485 121
3 443 113 498
3 561 30 31
3 501 541 126
3 542 547 126
3 540 482 543
3 489 484 485
3 502 541 500
3 542 29 547
3 503 482 502
3 515 530 504
3 520 516 522
3 512 131 129
3 535 539 31
3 135 120 490
3 538 133 31
3 536 561 31
3 537 560 30
3 446 112 591
3 546 135 558
3 546 125 544
3 594 137 552
3 444 138 113
3 551 139 138
3 138 139 491
3 555 549 139
3 491 122 484
3 138 553 551
3 550 135 490
3 557 140 33
3 557 558 140
3 636 143 141
3 36 565 141
3 648 143 145
3 36 141 143
3 656 655 157
3 680 681 673
3 146 145 37
3 146 38 145
3 645 644 146
3 642 38 146
3 642 147 148
3 645 141 565
3 645 148 147
3 142 580 565
3 150 605 151
3 602 109 600
3 607 611 612
3 605 149 606
3 7 448 604
3 13 150 151
[...]
CELL_DATA 1179
COLOR_SCALARS ColorSpace 1
0.729412
0.921569
0.473203
0.754248
0.499346
0.445752
0.444444
0.564706
0.467974
0.491503
0.577778
0.433987
0.486275
0.555556
0.431373
0.466667
0.49281
0.50719
0.464052
0.475817
0.464052
0.452288
0.419608
0.579085
0.647059
0.915033
0.496732
0.52549
0.743791
0.908497
0.769935
0.495425
0.517647
0.449673
0.465359
0.750327
0.576471
0.52549
0.50719
0.423529
0.457516
0.456209
0.416993
0.921569
0.406536
0.471895
0.471895
0.626144
0.734641
0.626144
0.424837
0.780392
0.495425
0.40915
0.750327
0.70719
0.670588
0.74902
0.921569
0.921569
0.856209
0.470588
0.74902
0.921569
0.921569
0.602614
0.803922
0.462745
0.849673
0.754248
0.798693
0.447059
0.496732
0.454902
0.491503
0.49281
0.573856
0.522876
0.915033
0.730719
0.505882
0.436601
0.522876
0.526797
0.51634
0.458824
0.539869
0.423529
0.479739
0.437908
0.533333
0.479739
0.487582
0.436601
0.422222
0.457516
0.458824
0.464052
0.559477
0.511111
0.529412
0.453595
0.486275
0.491503
0.636601
0.660131
0.670588
0.793464
0.865359
0.636601
0.908497
0.645752
0.45098
0.445752
0.775163
0.473203
0.504575
0.579085
0.6
0.898039
0.700654
0.888889
0.402614
0.836601
0.627451
0.741176
0.750327
0.598693
0.737255
0.605229
0.473203
0.912418
0.822222
0.613072
0.732026
0.555556
0.418301
0.453595
0.562092
0.439216
0.495425
0.467974
0.501961
0.47451
0.798693
0.682353
0.444444
0.524183
0.499346
0.530719
0.503268
0.479739
0.428758
0.45098
0.491503
0.526797
0.465359
0.401307
0.466667
0.538562
0.447059
0.481046
0.411765
0.539869
0.495425
0.487582
0.494118
0.50719
0.495425
0.498039
0.496732
0.449673
0.437908
0.486275
0.454902
0.517647
0.529412
0.541176
0.466667
0.40915
0.526797
0.479739
0.524183
0.487582
0.473203
0.435294
0.426144
0.487582
0.484967
0.802614
0.517647
0.410458
0.515033
0.498039
0.475817
0.457516
0.491503
0.44183
0.466667
0.414379
0.554248
0.509804
0.452288
0.420915
0.479739
0.921569
0.921569
0.921569
0.471895
0.392157
0.47451
0.410458
0.524183
0.49281
0.469281
0.503268
0.498039
0.490196
0.526797
0.520261
0.477124
0.469281
0.479739
0.460131
0.436601
0.457516
0.500654
0.661438
0.603922
0.530719
0.801307
0.792157
0.392157
0.572549
0.439216
0.581699
0.439216
0.657516
0.477124
0.75817
0.496732
0.556863
0.491503
0.504575
0.413072
0.458824
0.478431
0.462745
0.452288
0.491503
0.773856
0.602614
0.580392
0.44183
0.386928
0.410458
0.762092
0.504575
0.518954
0.712418
0.64183
0.769935
0.568627
0.477124
0.576471
0.562092
0.894118
0.745098
0.444444
0.586928
0.448366
0.675817
0.427451
0.60915
0.556863
0.742484
0.52549
0.488889
0.921569
0.921569
0.921569
0.921569
0.921569
0.921569
0.875817
0.921569
0.921569
0.803922
0.592157
0.87451
0.816993
0.903268
0.798693
0.775163
0.732026
0.763399
0.415686
0.494118
0.477124
0.678431
0.477124
0.921569
0.496732
0.498039
0.678431
0.444444
0.867974
0.59085
0.869281
0.50719
0.711111
0.501961
0.732026
0.921569
0.921569
0.921569
0.921569
0.921569
0.921569
0.921569
0.921569
0.564706
0.529412
0.766013
0.469281
0.555556
0.413072
0.730719
0.616993
0.741176
0.623529
0.552941
0.677124
0.547712
0.645752
0.499346
0.746405
0.798693
0.562092
0.448366
0.684967
0.539869
0.837908
0.533333
0.662745
0.490196
0.56732
0.501961
0.453595
0.469281
0.505882
0.430065
0.479739
0.541176
0.518954
0.513725
0.488889
0.484967
0.469281
0.520261
0.454902
0.479739
0.420915
0.50719
0.500654
0.453595
0.512418
0.444444
0.566013
0.539869
0.660131
0.402614
0.572549
0.389542
0.376471
0.539869
0.598693
0.586928
0.55817
0.458824
0.475817
0.420915
0.418301
0.482353
0.529412
0.437908
0.423529
0.538562
0.477124
0.427451
0.460131
0.460131
0.422222
0.475817
0.537255
0.509804
0.547712
0.462745
0.488889
0.530719
0.461438
0.532026
0.515033
0.543791
0.420915
0.461438
0.418301
0.477124
0.464052
0.414379
0.491503
0.456209
0.467974
0.475817
0.443137
0.494118
0.444444
0.465359
0.471895
0.456209
0.478431
0.460131
0.45098
0.488889
0.520261
0.460131
0.394771
0.447059
0.51634
0.48366
0.456209
0.554248
0.490196
0.433987
0.51634
0.437908
0.496732
0.496732
0.520261
0.508497
0.51634
0.457516
0.543791
0.513725
0.505882
0.443137
0.482353
0.460131
0.512418
0.424837
0.464052
0.453595
0.477124
0.543791
0.452288
0.43268
0.49281
0.517647
0.513725
0.482353
0.512418
0.469281
0.505882
0.482353
0.537255
0.456209
0.511111
0.521569
0.628758
0.452288
0.535948
0.439216
0.56732
0.478431
0.48366
0.449673
0.488889
0.556863
0.839216
0.571242
0.899346
0.763399
0.605229
0.878431
0.593464
0.69281
0.878431
0.806536
0.816993
0.597386
0.718954
0.741176
0.635294
0.630065
0.90719
0.436601
0.743791
0.583007
0.572549
0.470588
0.48366
0.572549
0.511111
0.644444
0.90719
0.597386
0.79085
0.90719
0.768627
0.90719
0.848366
0.820915
0.901961
0.687582
0.83268
0.435294
0.888889
0.911111
0.862745
0.760784
0.661438
0.737255
0.903268
0.917647
0.648366
0.794771
0.661438
0.690196
0.495425
0.576471
0.875817
0.908497
0.836601
0.657516
0.890196
0.517647
0.903268
0.741176
0.665359
0.742484
0.478431
0.619608
0.505882
0.583007
0.494118
0.602614
0.649673
0.526797
0.91634
0.562092
0.54902
0.797386
0.860131
0.865359
0.690196
0.886275
0.908497
0.904575
0.904575
0.816993
0.633987
0.803922
0.694118
0.797386
0.912418
0.915033
0.915033
0.921569
0.921569
0.921569
0.921569
0.921569
0.921569
0.915033
0.915033
0.921569
0.915033
0.908497
0.652288
0.430065
0.521569
0.496732
0.737255
0.908497
0.572549
0.737255
0.915033
0.635294
0.785621
0.750327
0.776471
0.780392
0.524183
0.465359
0.479739
0.556863
0.500654
0.718954
0.913725
0.500654
0.679739
0.786928
0.620915
0.864052
0.789542
0.54902
0.594771
0.6
0.482353
0.775163
0.575163
0.460131
0.479739
0.452288
0.454902
0.4
0.490196
0.554248
0.453595
0.54902
0.475817
0.504575
0.509804
0.452288
0.427451
0.411765
0.445752
0.542484
0.796078
0.520261
0.462745
0.606536
0.768627
0.68366
0.801307
0.687582
0.660131
0.462745
0.4
0.678431
0.465359
0.798693
0.798693
0.803922
0.798693
0.798693
0.798693
0.798693
0.682353
0.43268
0.51634
0.50719
0.54902
0.449673
0.568627
0.500654
0.568627
0.449673
0.556863
0.422222
0.445752
0.490196
0.440523
0.448366
0.449673
0.484967
0.526797
0.470588
0.563399
0.504575
0.55817
0.486275
0.55817
0.473203
0.537255
0.499346
0.538562
0.555556
0.555556
0.499346
0.454902
0.509804
0.487582
0.478431
0.556863
0.554248
0.526797
0.499346
0.505882
0.503268
0.504575
0.449673
0.517647
0.495425
0.495425
0.498039
0.47451
0.447059
0.478431
0.530719
0.521569
0.533333
0.520261
0.513725
0.473203
0.49281
0.457516
0.546405
0.447059
0.494118
0.520261
0.541176
0.534641
0.551634
0.524183
0.503268
0.513725
0.521569
0.539869
0.471895
0.458824
0.427451
0.500654
0.420915
0.509804
0.475817
0.452288
0.469281
0.45098
0.397386
0.416993
0.386928
0.416993
0.543791
0.509804
0.490196
0.51634
0.490196
0.470588
0.471895
0.486275
0.479739
0.433987
0.467974
0.500654
0.448366
0.470588
0.479739
0.444444
0.44183
0.496732
0.436601
0.445752
0.500654
0.467974
0.498039
0.452288
0.500654
0.406536
0.467974
0.436601
0.436601
0.419608
0.439216
0.541176
0.515033
0.496732
0.515033
0.508497
0.528105
0.420915
0.447059
0.47451
0.449673
0.488889
0.530719
0.48366
0.430065
0.515033
0.542484
0.464052
0.545098
0.481046
0.503268
0.511111
0.491503
0.471895
0.537255
0.504575
0.454902
0.439216
0.437908
0.469281
0.484967
0.410458
0.45098
0.439216
0.453595
0.460131
0.470588
0.508497
0.486275
0.445752
0.522876
0.505882
0.54902
0.490196
0.453595
0.491503
0.484967
0.491503
0.512418
0.55817
0.517647
0.556863
0.530719
0.802614
0.490196
0.802614
0.528105
0.802614
0.802614
0.802614
0.496732
0.564706
0.555556
0.521569
0.501961
0.537255
0.431373
0.802614
0.528105
0.424837
0.802614
0.436601
0.545098
0.449673
0.424837
0.55817
0.482353
0.509804
0.469281
0.511111
0.556863
0.509804
0.562092
0.534641
0.462745
0.554248
0.452288
0.524183
0.452288
0.469281
0.475817
0.487582
0.51634
0.445752
0.52549
0.482353
0.469281
0.508497
0.766013
0.647059
0.598693
0.423529
0.423529
0.766013
0.766013
0.766013
0.766013
0.766013
0.766013
0.921569
0.921569
0.766013
0.921569
0.921569
0.921569
0.921569
0.921569
0.921569
0.921569
0.921569
0.921569
0.921569
0.921569
0.921569
0.921569
0.921569
0.754248
0.921569
0.921569
0.921569
0.754248
0.754248
0.754248
0.484967
0.754248
0.443137
0.522876
0.414379
0.479739
0.532026
0.491503
0.469281
0.47451
0.457516
0.452288
0.487582
0.564706
0.508497
0.546405
0.433987
0.478431
0.539869
0.491503
0.529412
0.436601
0.444444
0.470588
0.539869
0.534641
0.478431
0.482353
0.478431
0.47451
0.496732
0.512418
0.524183
0.524183
0.481046
0.439216
0.534641
0.533333
0.473203
0.488889
0.43268
0.471895
0.48366
0.462745
0.464052
0.481046
0.414379
0.494118
0.509804
0.513725
0.456209
0.542484
0.517647
0.560784
0.418301
0.469281
0.475817
0.499346
0.435294
0.392157
0.754248
0.495425
0.616993
0.467974
0.453595
0.47451
0.464052
0.47451
0.478431
0.453595
0.406536
0.652288
0.433987
0.433987
0.484967
0.785621
0.762092
0.445752
0.469281
0.762092
0.426144
0.405229
0.755556
0.47451
0.501961
0.473203
0.437908
0.410458
0.456209
0.618301
0.509804
0.449673
0.522876
0.452288
0.487582
0.477124
0.746405
0.448366
0.563399
0.44183
0.436601
0.575163
0.739869
0.416993
0.495425
0.484967
0.473203
0.518954
0.478431
0.439216
0.50719
0.539869
0.518954
0.456209
0.47451
0.466667
0.470588
0.49281
0.508497
0.488889
0.478431
0.518954
0.416993
0.51634
0.448366
0.413072
0.449673
0.458824
0.481046
0.487582
0.45098
0.545098
0.515033
0.45098
0.40915
0.431373
0.431373
0.401307
0.543791
0.478431
0.439216
0.457516
0.392157
0.448366
0.524183
0.44183
0.456209
0.481046
0.413072
0.40915
0.55817
0.449673
0.518954
0.452288
0.443137
0.465359
0.449673
0.512418
0.465359
0.529412
0.620915
0.437908
0.448366
0.428758
0.581699
0.443137
0.763399
0.579085
0.481046
0.585621
0.491503
0.495425
0.475817
0.581699
0.454902
0.452288
0.505882
0.416993
0.509804
0.512418
0.577778
0.505882
0.495425
0.496732
0.569935
0.607843
0.445752
0.499346
0.677124
0.605229
0.728105
0.503268
0.734641
0.440523
0.839216
0.546405
0.848366
0.64183
0.542484
0.613072
0.487582
0.437908
0.457516
0.410458
0.423529
0.424837
0.43268
0.592157
0.419608
0.423529
0.564706
0.592157
0.383007
0.405229
0.376471
0.375163
0.401307
0.439216
0.443137
0.513725
0.631373
0.762092
0.79085
0.596078
0.576471
0.755556
0.751634
0.743791
0.762092
0.801307
0.762092
0.762092
0.894118
0.900654
0.900654
0.801307
0.869281
0.705882
0.562092
0.745098
0.733333
0.738562
0.43268
0.738562
0.760784
0.760784
0.866667
0.678431
0.682353
0.477124
0.733333
0.458824
0.8
0.48366
0.677124
0.543791
0.619608
0.794771
0.562092
0.487582
0.742484
0.464052
0.766013
0.406536
0.673203
0.670588
0.798693
0.639216
0.8
0.762092
0.762092
0.8
0.803922
0.8
0.766013
0.741176
0.8
0.921569
0.921569
0.921569
0.921569
0.764706
0.576471
