# vtk DataFile Version 1.0
Unstructured Grid Example
ASCII

DATASET UNSTRUCTURED_GRID
POINTS 6911 float
45 598 0
46 598 0
47 598 0
45 597 0
47 597 0
45 596 0
47 596 0
48 596 0
45 595 0
48 595 0
49 595 0
45 594 0
49 594 0
45 593 0
49 593 0
50 593 0
45 592 0
50 592 0
45 591 0
50 591 0
51 591 0
45 590 0
51 590 0
45 589 0
51 589 0
45 588 0
51 588 0
52 588 0
45 587 0
52 587 0
45 586 0
52 586 0
45 585 0
52 585 0
53 585 0
45 584 0
53 584 0
45 583 0
53 583 0
45 582 0
53 582 0
54 582 0
45 581 0
54 581 0
45 580 0
46 580 0
54 580 0
55 580 0
46 579 0
55 579 0
46 578 0
55 578 0
46 577 0
55 577 0
56 577 0
46 576 0
56 576 0
46 575 0
56 575 0
46 574 0
56 574 0
57 574 0
46 573 0
57 573 0
46 572 0
57 572 0
58 572 0
46 571 0
58 571 0
46 570 0
58 570 0
59 570 0
46 569 0
59 569 0
46 568 0
59 568 0
46 567 0
59 567 0
60 567 0
46 566 0
60 566 0
46 565 0
60 565 0
61 565 0
46 564 0
61 564 0
46 563 0
61 563 0
62 563 0
46 562 0
62 562 0
46 561 0
62 561 0
63 561 0
46 560 0
63 560 0
46 559 0
63 559 0
46 558 0
63 558 0
64 558 0
46 557 0
64 557 0
65 557 0
46 556 0
64 556 0
65 556 0
46 555 0
47 555 0
65 555 0
66 555 0
47 554 0
65 554 0
66 554 0
47 553 0
66 553 0
67 553 0
47 552 0
66 552 0
67 552 0
47 551 0
67 551 0
68 551 0
47 550 0
68 550 0
47 549 0
68 549 0
47 548 0
68 548 0
69 548 0
47 547 0
69 547 0
70 547 0
47 546 0
70 546 0
47 545 0
70 545 0
71 545 0
47 544 0
71 544 0
47 543 0
71 543 0
72 543 0
47 542 0
72 542 0
73 542 0
47 541 0
72 541 0
73 541 0
47 540 0
48 540 0
73 540 0
74 540 0
48 539 0
74 539 0
48 538 0
74 538 0
75 538 0
48 537 0
75 537 0
76 537 0
48 536 0
75 536 0
76 536 0
48 535 0
76 535 0
77 535 0
48 534 0
77 534 0
78 534 0
48 533 0
77 533 0
78 533 0
48 532 0
78 532 0
79 532 0
48 531 0
79 531 0
80 531 0
48 530 0
80 530 0
81 530 0
48 529 0
81 529 0
48 528 0
49 528 0
81 528 0
82 528 0
49 527 0
82 527 0
83 527 0
49 526 0
83 526 0
84 526 0
49 525 0
84 525 0
85 525 0
49 524 0
85 524 0
86 524 0
49 523 0
86 523 0
87 523 0
49 522 0
87 522 0
88 522 0
49 521 0
88 521 0
89 521 0
49 520 0
89 520 0
90 520 0
49 519 0
90 519 0
49 518 0
50 518 0
90 518 0
91 518 0
92 518 0
50 517 0
92 517 0
50 516 0
92 516 0
93 516 0
94 516 0
50 515 0
93 515 0
94 515 0
95 515 0
50 514 0
95 514 0
50 513 0
95 513 0
96 513 0
50 512 0
96 512 0
97 512 0
50 511 0
97 511 0
98 511 0
50 510 0
98 510 0
99 510 0
50 509 0
51 509 0
99 509 0
100 509 0
51 508 0
100 508 0
101 508 0
51 507 0
101 507 0
102 507 0
51 506 0
102 506 0
103 506 0
51 505 0
103 505 0
104 505 0
51 504 0
104 504 0
51 503 0
104 503 0
105 503 0
106 503 0
51 502 0
105 502 0
106 502 0
51 501 0
106 501 0
107 501 0
51 500 0
52 500 0
107 500 0
108 500 0
52 499 0
108 499 0
109 499 0
52 498 0
109 498 0
110 498 0
52 497 0
110 497 0
111 497 0
52 496 0
110 496 0
111 496 0
112 496 0
181 496 0
182 496 0
183 496 0
52 495 0
112 495 0
178 495 0
179 495 0
180 495 0
181 495 0
182 495 0
183 495 0
52 494 0
112 494 0
113 494 0
176 494 0
177 494 0
178 494 0
181 494 0
182 494 0
52 493 0
113 493 0
114 493 0
173 493 0
174 493 0
175 493 0
176 493 0
180 493 0
181 493 0
52 492 0
53 492 0
114 492 0
115 492 0
171 492 0
172 492 0
173 492 0
174 492 0
179 492 0
180 492 0
53 491 0
115 491 0
116 491 0
168 491 0
169 491 0
170 491 0
171 491 0
178 491 0
179 491 0
53 490 0
116 490 0
166 490 0
167 490 0
168 490 0
177 490 0
178 490 0
53 489 0
116 489 0
117 489 0
164 489 0
165 489 0
166 489 0
167 489 0
176 489 0
177 489 0
53 488 0
117 488 0
118 488 0
161 488 0
162 488 0
163 488 0
164 488 0
175 488 0
176 488 0
53 487 0
117 487 0
118 487 0
159 487 0
160 487 0
161 487 0
174 487 0
175 487 0
53 486 0
54 486 0
113 486 0
114 486 0
115 486 0
116 486 0
117 486 0
157 486 0
158 486 0
159 486 0
173 486 0
174 486 0
54 485 0
107 485 0
108 485 0
109 485 0
110 485 0
111 485 0
112 485 0
113 485 0
154 485 0
155 485 0
156 485 0
157 485 0
172 485 0
173 485 0
54 484 0
103 484 0
104 484 0
105 484 0
106 484 0
107 484 0
151 484 0
152 484 0
153 484 0
154 484 0
172 484 0
54 483 0
98 483 0
99 483 0
100 483 0
101 483 0
102 483 0
103 483 0
149 483 0
150 483 0
151 483 0
170 483 0
171 483 0
172 483 0
54 482 0
93 482 0
94 482 0
95 482 0
96 482 0
97 482 0
98 482 0
146 482 0
147 482 0
148 482 0
149 482 0
170 482 0
54 481 0
87 481 0
88 481 0
89 481 0
90 481 0
91 481 0
92 481 0
93 481 0
144 481 0
145 481 0
146 481 0
169 481 0
170 481 0
54 480 0
83 480 0
84 480 0
85 480 0
86 480 0
87 480 0
88 480 0
141 480 0
142 480 0
143 480 0
144 480 0
168 480 0
169 480 0
54 479 0
55 479 0
83 479 0
84 479 0
85 479 0
86 479 0
87 479 0
88 479 0
89 479 0
90 479 0
91 479 0
92 479 0
139 479 0
140 479 0
141 479 0
167 479 0
168 479 0
55 478 0
92 478 0
93 478 0
94 478 0
95 478 0
96 478 0
97 478 0
98 478 0
99 478 0
100 478 0
101 478 0
102 478 0
103 478 0
104 478 0
105 478 0
106 478 0
107 478 0
108 478 0
109 478 0
110 478 0
111 478 0
112 478 0
113 478 0
114 478 0
115 478 0
116 478 0
117 478 0
118 478 0
119 478 0
120 478 0
121 478 0
122 478 0
137 478 0
138 478 0
139 478 0
166 478 0
167 478 0
55 477 0
121 477 0
122 477 0
123 477 0
124 477 0
125 477 0
126 477 0
127 477 0
128 477 0
129 477 0
130 477 0
131 477 0
132 477 0
133 477 0
134 477 0
135 477 0
136 477 0
137 477 0
165 477 0
166 477 0
55 476 0
164 476 0
165 476 0
55 475 0
163 475 0
164 475 0
55 474 0
162 474 0
163 474 0
55 473 0
56 473 0
161 473 0
162 473 0
56 472 0
160 472 0
161 472 0
56 471 0
159 471 0
160 471 0
56 470 0
158 470 0
159 470 0
56 469 0
158 469 0
159 469 0
56 468 0
156 468 0
157 468 0
158 468 0
56 467 0
156 467 0
56 466 0
57 466 0
156 466 0
157 466 0
57 465 0
157 465 0
158 465 0
57 464 0
158 464 0
159 464 0
57 463 0
158 463 0
159 463 0
57 462 0
58 462 0
159 462 0
160 462 0
58 461 0
160 461 0
161 461 0
58 460 0
161 460 0
162 460 0
302 460 0
303 460 0
304 460 0
58 459 0
162 459 0
299 459 0
300 459 0
301 459 0
302 459 0
303 459 0
304 459 0
58 458 0
162 458 0
163 458 0
297 458 0
298 458 0
299 458 0
301 458 0
302 458 0
58 457 0
163 457 0
164 457 0
296 457 0
297 457 0
298 457 0
299 457 0
300 457 0
301 457 0
58 456 0
164 456 0
165 456 0
293 456 0
294 456 0
295 456 0
296 456 0
298 456 0
299 456 0
58 455 0
59 455 0
165 455 0
166 455 0
291 455 0
292 455 0
293 455 0
296 455 0
297 455 0
298 455 0
59 454 0
165 454 0
166 454 0
167 454 0
289 454 0
290 454 0
291 454 0
292 454 0
295 454 0
296 454 0
297 454 0
59 453 0
167 453 0
287 453 0
288 453 0
289 453 0
293 453 0
294 453 0
295 453 0
59 452 0
167 452 0
168 452 0
285 452 0
286 452 0
287 452 0
292 452 0
293 452 0
294 452 0
59 451 0
60 451 0
168 451 0
169 451 0
283 451 0
284 451 0
285 451 0
290 451 0
291 451 0
292 451 0
60 450 0
169 450 0
170 450 0
280 450 0
281 450 0
282 450 0
283 450 0
289 450 0
290 450 0
60 449 0
170 449 0
171 449 0
278 449 0
279 449 0
280 449 0
287 449 0
288 449 0
289 449 0
60 448 0
171 448 0
172 448 0
276 448 0
277 448 0
278 448 0
286 448 0
287 448 0
60 447 0
172 447 0
274 447 0
275 447 0
276 447 0
285 447 0
286 447 0
60 446 0
61 446 0
172 446 0
173 446 0
271 446 0
272 446 0
273 446 0
274 446 0
283 446 0
284 446 0
285 446 0
61 445 0
173 445 0
174 445 0
269 445 0
270 445 0
271 445 0
282 445 0
283 445 0
61 444 0
174 444 0
175 444 0
267 444 0
268 444 0
269 444 0
280 444 0
281 444 0
282 444 0
61 443 0
175 443 0
176 443 0
265 443 0
266 443 0
267 443 0
279 443 0
280 443 0
61 442 0
176 442 0
177 442 0
263 442 0
264 442 0
265 442 0
277 442 0
278 442 0
279 442 0
61 441 0
62 441 0
177 441 0
178 441 0
260 441 0
261 441 0
262 441 0
263 441 0
275 441 0
276 441 0
277 441 0
62 440 0
178 440 0
179 440 0
258 440 0
259 440 0
260 440 0
261 440 0
274 440 0
275 440 0
276 440 0
62 439 0
179 439 0
180 439 0
256 439 0
257 439 0
258 439 0
273 439 0
274 439 0
275 439 0
62 438 0
180 438 0
254 438 0
255 438 0
256 438 0
271 438 0
272 438 0
273 438 0
62 437 0
180 437 0
181 437 0
182 437 0
252 437 0
253 437 0
254 437 0
255 437 0
270 437 0
271 437 0
62 436 0
63 436 0
182 436 0
183 436 0
249 436 0
250 436 0
251 436 0
252 436 0
268 436 0
269 436 0
270 436 0
63 435 0
183 435 0
184 435 0
247 435 0
248 435 0
249 435 0
267 435 0
268 435 0
63 434 0
184 434 0
185 434 0
245 434 0
246 434 0
247 434 0
265 434 0
266 434 0
267 434 0
63 433 0
185 433 0
186 433 0
243 433 0
244 433 0
245 433 0
264 433 0
265 433 0
63 432 0
64 432 0
186 432 0
241 432 0
242 432 0
243 432 0
262 432 0
263 432 0
264 432 0
64 431 0
185 431 0
186 431 0
239 431 0
240 431 0
241 431 0
261 431 0
262 431 0
263 431 0
64 430 0
183 430 0
184 430 0
185 430 0
236 430 0
237 430 0
238 430 0
239 430 0
259 430 0
260 430 0
261 430 0
64 429 0
181 429 0
182 429 0
183 429 0
184 429 0
234 429 0
235 429 0
236 429 0
258 429 0
259 429 0
260 429 0
64 428 0
65 428 0
178 428 0
179 428 0
180 428 0
181 428 0
232 428 0
233 428 0
234 428 0
256 428 0
257 428 0
258 428 0
65 427 0
175 427 0
176 427 0
177 427 0
178 427 0
229 427 0
230 427 0
231 427 0
232 427 0
255 427 0
256 427 0
65 426 0
172 426 0
173 426 0
174 426 0
175 426 0
227 426 0
228 426 0
229 426 0
253 426 0
254 426 0
255 426 0
65 425 0
168 425 0
169 425 0
170 425 0
171 425 0
172 425 0
225 425 0
226 425 0
227 425 0
228 425 0
252 425 0
253 425 0
65 424 0
164 424 0
165 424 0
166 424 0
167 424 0
168 424 0
223 424 0
224 424 0
225 424 0
251 424 0
252 424 0
446 424 0
447 424 0
65 423 0
66 423 0
159 423 0
160 423 0
161 423 0
162 423 0
163 423 0
164 423 0
221 423 0
222 423 0
223 423 0
249 423 0
250 423 0
251 423 0
444 423 0
445 423 0
446 423 0
447 423 0
66 422 0
155 422 0
156 422 0
157 422 0
158 422 0
159 422 0
219 422 0
220 422 0
221 422 0
247 422 0
248 422 0
249 422 0
443 422 0
444 422 0
445 422 0
446 422 0
66 421 0
150 421 0
151 421 0
152 421 0
153 421 0
154 421 0
155 421 0
217 421 0
218 421 0
219 421 0
246 421 0
247 421 0
441 421 0
442 421 0
443 421 0
444 421 0
445 421 0
66 420 0
144 420 0
145 420 0
146 420 0
147 420 0
148 420 0
149 420 0
150 420 0
214 420 0
215 420 0
216 420 0
217 420 0
245 420 0
246 420 0
247 420 0
440 420 0
441 420 0
442 420 0
443 420 0
444 420 0
66 419 0
67 419 0
139 419 0
140 419 0
141 419 0
142 419 0
143 419 0
144 419 0
145 419 0
213 419 0
214 419 0
215 419 0
243 419 0
244 419 0
245 419 0
439 419 0
440 419 0
441 419 0
442 419 0
67 418 0
133 418 0
134 418 0
135 418 0
136 418 0
137 418 0
138 418 0
139 418 0
[...]
CELL_DATA 6911
COLOR_SCALARS lut 1
0.0727352
0.0719171
0.0716443
0.0716606
0.0704354
0.0705137
0.0691518
0.0693245
0.0693541
0.0679705
0.0686546
0.068235
0.0672803
0.0672007
0.0659809
0.0671101
0.0662847
0.0658519
0.0655107
0.0647234
0.0662598
0.0648945
0.0651948
0.0644446
0.0642849
0.0641631
0.0635362
0.0653289
0.0640451
0.0646324
0.0640805
0.0640855
0.0642571
0.0636817
0.0656432
0.0645649
0.0652557
0.0649961
0.0650042
0.0655443
0.0648868
0.0669442
0.0662036
0.0668257
0.0669674
0.0649921
0.0668391
0.0690752
0.0658045
0.0690749
0.066704
0.0692
0.0676785
0.0694444
0.0716731
0.0687195
0.0718853
0.0698223
0.0722165
0.0709836
0.0726666
0.0748472
0.0721999
0.0752616
0.0734659
0.0757891
0.0780419
0.0747742
0.078515
0.0761171
0.0790892
0.0813882
0.07749
0.0818923
0.0788897
0.082492
0.0803129
0.0831833
0.0853344
0.0817557
0.0859448
0.0832141
0.0866453
0.0887979
0.084685
0.0894118
0.0861672
0.0901159
0.0922561
0.0876593
0.09287
0.0891593
0.093579
0.0956973
0.0906651
0.0963228
0.0921765
0.0970572
0.0936965
0.0979077
0.0998157
0.0952294
0.100608
0.102669
0.0967797
0.101529
0.103403
0.0983508
0.0966402
0.104272
0.106294
0.0982342
0.105277
0.107106
0.0998516
0.108055
0.110026
0.101491
0.10914
0.11091
0.103151
0.111926
0.113828
0.104829
0.114765
0.106522
0.115832
0.108224
0.117029
0.118632
0.109933
0.119748
0.121472
0.111644
0.122506
0.113359
0.123686
0.125307
0.115074
0.126412
0.116791
0.127671
0.129183
0.118512
0.130375
0.132005
0.120243
0.131734
0.133133
0.121992
0.120815
0.134435
0.135946
0.122574
0.137193
0.124352
0.138624
0.140008
0.126148
0.141387
0.142874
0.127957
0.142957
0.144202
0.129774
0.145725
0.147062
0.131598
0.148535
0.149956
0.133424
0.150208
0.151373
0.135253
0.152989
0.154219
0.137084
0.15577
0.157051
0.138923
0.158525
0.159843
0.140773
0.161228
0.142639
0.141849
0.162802
0.163842
0.143702
0.1653
0.166325
0.145571
0.167644
0.168632
0.147452
0.169786
0.17071
0.149338
0.171669
0.172503
0.151224
0.173232
0.17395
0.153103
0.174412
0.174994
0.154971
0.175151
0.175581
0.156827
0.175398
0.175668
0.158671
0.175117
0.160505
0.159969
0.174588
0.174285
0.174248
0.161744
0.172903
0.163504
0.171561
0.170986
0.170708
0.16524
0.169241
0.168564
0.1682
0.166939
0.165678
0.168586
0.163187
0.162382
0.170171
0.159562
0.15873
0.171683
0.155616
0.15478
0.173119
0.151402
0.150582
0.174473
0.174071
0.14697
0.146186
0.175262
0.142366
0.141639
0.176347
0.137636
0.136986
0.177304
0.132822
0.132271
0.178106
0.127966
0.127535
0.178723
0.123108
0.179129
0.118793
0.118289
0.118152
0.179303
0.11389
0.113554
0.179235
0.109097
0.108944
0.178929
0.178435
0.104451
0.104495
0.177807
0.0999881
0.100243
0.176973
0.0957461
0.0962252
0.175958
0.0917682
0.0924841
0.174785
0.0875097
0.0881048
0.0890702
0.108032
0.112195
0.116603
0.173478
0.0848131
0.0943047
0.09765
0.101347
0.105357
0.109645
0.114178
0.172066
0.0808204
0.0819535
0.085942
0.0886086
0.0916895
0.103108
0.107518
0.170577
0.0781608
0.0795855
0.0778599
0.0792866
0.0811791
0.0835276
0.097041
0.101292
0.169042
0.168329
0.0760337
0.0777625
0.0738007
0.0744364
0.0755262
0.0770792
0.0914961
0.0955481
0.166659
0.0744876
0.0765275
0.0718851
0.0714075
0.0713244
0.0716584
0.0865207
0.0903337
0.165001
0.0735551
0.0714869
0.0704608
0.069767
0.0821528
0.0856932
0.16338
0.0709449
0.0732455
0.072112
0.0706775
0.069509
0.0686377
0.0784179
0.0816604
0.161821
0.0709559
0.0735404
0.0754335
0.073508
0.0717757
0.0702585
0.0753255
0.0782541
0.16035
0.0690316
0.0715634
0.0776043
0.0754957
0.0735458
0.0728653
0.0754761
0.158985
0.158184
0.0606398
0.0618863
0.0634363
0.0652978
0.0674707
0.0801945
0.0779572
0.0758468
0.0710092
0.0733089
0.156827
0.0572787
0.0570996
0.0571317
0.0573801
0.0578542
0.0585684
0.0595396
0.0854866
0.0831097
0.0808031
0.0785865
0.0697129
0.0717178
0.155607
0.0587734
0.0578349
0.0571102
0.0565959
0.0562879
0.0909865
0.0886065
0.0862523
0.0839374
0.0706538
0.154531
0.0656033
0.063558
0.0617758
0.0602436
0.058949
0.0578802
0.0941229
0.0918388
0.089551
0.0685729
0.070058
0.071928
0.153605
0.0791242
0.0756251
0.072448
0.0695915
0.0670458
0.0647957
0.0993203
0.0972455
0.0951157
0.0929473
0.069868
0.152834
0.104771
0.099946
0.0952419
0.0907071
0.0863895
0.0823322
0.0785692
0.102094
0.100268
0.0983516
0.0700222
0.0714401
0.152222
0.123938
0.119151
0.114296
0.109416
0.104561
0.0997778
0.105936
0.104605
0.103104
0.101465
0.0704637
0.0716861
0.151779
0.150824
0.124134
0.119406
0.114606
0.109778
0.104971
0.100232
0.0956107
0.0911572
0.0869206
0.0829454
0.107534
0.106697
0.105627
0.0711435
0.0721856
0.150462
0.0841835
0.0805405
0.0772157
0.0742199
0.0715525
0.0692042
0.0671593
0.0654011
0.0639122
0.0626758
0.0616758
0.0608972
0.0603269
0.0599533
0.0597661
0.0597537
0.0599047
0.0602082
0.0606587
0.0612562
0.0620066
0.0629189
0.0640047
0.0652746
0.0667373
0.0683977
0.0702557
0.0723047
0.0745305
0.0769139
0.0794334
0.108441
0.108206
0.107675
0.0720224
0.0728934
0.150285
0.078647
0.081063
0.0835869
0.0861883
0.0888298
0.0914715
0.0940735
0.0965973
0.0990038
0.10125
0.103291
0.105079
0.106573
0.107735
0.108544
0.108993
0.109096
0.0730725
0.0737747
0.150296
0.0742806
0.0748069
0.150493
0.07565
0.0759845
0.150873
0.0772005
0.0773194
0.151432
0.150544
0.0789668
0.0788404
0.151195
0.0809967
0.0805918
0.15201
0.0833467
0.0826299
0.152981
0.0860769
0.0850193
0.154097
0.0878251
0.0867682
0.155354
0.0928909
0.0911046
0.0896571
0.156748
0.094901
0.158281
0.157442
0.097012
0.0951036
0.159033
0.0972405
0.0956216
0.160764
0.0977803
0.0964852
0.162632
0.10005
0.0986623
0.164633
0.164085
0.100958
0.0998994
0.166129
0.102209
0.10148
0.168289
0.103781
0.103366
0.198642
0.204713
0.210782
0.170555
0.105621
0.177921
0.18406
0.190272
0.196522
0.202786
0.20904
0.172913
0.107948
0.107647
0.163307
0.169432
0.175681
0.188451
0.194907
0.175349
0.109828
0.10976
0.154931
0.161125
0.167469
0.173938
0.180508
0.187145
0.177851
0.111725
0.111848
0.134943
0.140741
0.146777
0.153018
0.166013
0.172711
0.18041
0.179844
0.113523
0.113791
0.121641
0.127092
0.132845
0.151611
0.158268
0.165076
0.182346
0.115091
0.115099
0.11547
0.109273
0.114241
0.119579
0.125256
0.144005
0.15072
0.157618
0.184885
0.116338
0.098124
0.102471
0.107253
0.130142
0.136645
0.143392
0.187453
0.117005
0.117139
0.0884628
0.0920685
0.0961593
0.123093
0.12956
0.136307
0.190037
0.189691
0.117277
0.117428
0.0804598
0.0832668
0.0865749
0.110346
0.116387
0.122782
0.192163
0.117014
0.11716
0.0725708
0.0741342
0.0761583
0.0786651
0.10418
0.110068
0.194618
0.116193
0.116322
0.0684307
0.06935
0.0706757
0.0932638
0.09849
0.104181
0.197034
0.114821
0.114926
0.0654864
0.0658776
0.0666203
0.0883685
0.0933227
0.199387
0.112934
0.0635129
0.0634776
0.0637476
0.0840611
0.0887176
0.201649
0.20136
0.110816
0.1106
0.0629481
0.0623217
0.0619435
0.0618324
0.0765195
0.0803524
0.0846987
0.203369
0.10812
0.1079
0.0626028
0.0617454
0.0611004
0.0736985
0.0772355
0.205221
0.105126
0.104919
0.0626473
0.0616238
0.0607828
0.068621
0.0714274
0.0746892
0.206877
0.101913
0.101744
0.0629621
0.0618242
0.0608448
0.0670796
0.0696668
0.208301
0.0985681
0.0984635
0.06347
0.0622495
0.0611726
0.0639436
0.065974
0.0683731
0.209458
0.209144
0.0951825
0.0951768
0.0655292
0.064124
0.062843
0.0616933
0.0617737
0.0633562
0.0652582
0.209855
0.0918581
0.0919864
0.0663317
0.0648892
0.0635647
0.0623621
0.0615866
0.0630886
0.064888
0.210247
0.0886992
0.0889994
0.0672231
0.0657493
0.0643882
0.061662
0.0631027
0.064822
0.210308
0.0858155
0.0681841
0.066691
0.0653023
0.0608164
0.0619678
0.0633652
0.210044
0.0829086
0.0833219
0.0840927
0.0691869
0.067689
0.0662878
0.0649868
0.0613338
0.0624751
0.209476
0.209038
0.0813312
0.0824025
0.071824
0.0702295
0.0687266
0.0673188
0.0610791
0.062016
0.0631589
0.208029
0.0799423
0.0813523
0.0728903
0.0713023
0.069802
0.0618913
0.0628475
0.20678
0.0792361
0.0810118
0.0739683
0.0723895
0.0708968
0.0620322
0.0628352
0.0638164
0.20533
0.0792702
0.0814226
0.0750472
0.0734808
0.0719984
0.0630582
0.0639001
0.203723
0.203273
0.0800726
0.0761194
0.0745674
0.0730975
0.063462
0.0641905
0.0650756
0.201377
0.0769519
0.0791138
0.0771777
0.0756426
0.0741877
0.0646347
0.0654178
0.0663512
0.199397
0.0730844
0.0745391
0.0763559
0.0798317
0.0782258
0.0767037
0.0752632
0.0651882
0.0658869
0.0667287
0.197368
0.0707664
0.0716041
0.0727653
0.0742663
0.0808786
0.0792776
0.0777603
0.066449
0.0672094
0.0681123
0.195322
0.194842
0.0694625
0.0696078
0.0699842
0.0706203
0.0819317
0.0803348
0.0788214
0.0670904
0.067773
0.0685953
0.19263
0.0694152
0.0692258
0.0691605
0.0692521
0.0847127
0.0830099
0.0814022
0.079885
0.0684027
0.0691513
0.19044
0.0695011
0.0692744
0.0690992
0.0689915
0.0859204
0.0841677
0.0825196
0.0690765
0.0697589
0.070575
0.188285
0.0692748
0.0691304
0.0689978
0.0688852
0.068801
0.087301
0.0854773
0.0837601
0.0821516
0.0703976
0.0711504
0.186177
0.0681115
0.0681127
0.0681221
0.0681365
0.0681548
0.0889091
0.0870026
0.0851989
0.0717433
0.0725689
0.294879
0.300806
0.184125
0.183418
0.0661881
0.0662544
0.0663354
0.066434
0.0665513
0.0666858
0.0907917
0.0887984
0.0868991
0.0723175
0.0730994
0.0740043
0.279925
0.285994
0.292094
0.29822
0.181255
0.0639007
0.0640019
0.0641353
0.0642927
0.0644675
0.0929803
0.0909073
0.0889146
0.0728168
0.0735735
0.0744476
0.270866
0.277109
0.283394
0.289707
0.179163
0.0618361
0.0617905
0.0617975
0.0618593
0.0619755
0.0621415
0.0954954
0.0933587
0.0912831
0.0739378
0.0747931
0.255485
0.261805
0.268214
0.274687
0.281201
0.177153
0.0606096
0.0604338
0.0602819
0.0601601
0.0600742
0.0600299
0.0600309
0.100503
0.0983262
0.0961615
0.094029
0.0749962
0.0759544
0.0770333
0.2463
0.252748
0.259308
0.265959
0.272676
0.175239
0.174446
0.0595755
0.0593449
0.0591546
0.0589962
0.0588635
0.0587519
0.0586619
0.10141
0.0992822
0.0971421
0.0750253
0.075968
0.0770345
0.237132
0.243698
0.250394
0.257207
0.172466
0.0604937
0.059772
0.0591789
0.0587034
0.0583328
0.0580519
0.0578417
0.106482
0.104608
0.102621
0.100559
0.0748534
0.0757737
0.0768261
0.221456
0.227979
0.234655
0.241476
0.248433
0.170611
0.0663892
0.0646381
0.0631127
0.0617946
0.0606661
0.05971
0.0589093
0.109219
0.107697
0.105991
0.0753568
0.0763805
0.0775441
0.205825
0.212242
0.218843
0.232555
0.239642
0.168902
0.0811234
0.0776596
0.0745233
0.0717108
0.0692084
0.0669968
0.0650532
0.112276
0.111493
0.110442
0.109147
0.0757001
0.0768235
0.196599
0.203064
0.209733
0.223634
0.230838
0.167354
0.166464
0.106249
0.101412
0.0967068
0.0921822
0.087883
0.08385
0.0801157
0.113355
0.113145
0.112649
0.0748213
0.0758709
0.0770863
0.187429
0.193932
0.214718
0.222029
0.164924
0.138265
0.13405
0.1296
0.124961
0.120183
0.115322
0.110433
0.105574
0.113809
0.114147
0.114216
0.0747563
0.0758676
0.172043
0.178327
0.184857
0.205819
0.213222
0.163576
0.153768
0.151225
0.148363
0.145158
0.141617
0.137763
0.0599804
0.0604223
0.0609018
0.0614206
0.0619804
0.0625827
0.0632244
0.063899
0.0645968
0.0653094
0.066032
0.0667638
0.0675064
0.0682626
0.0690346
0.0698229
0.0706255
0.0714376
0.0722542
0.0730738
0.0738989
0.0747339
0.0755843
0.0764553
0.0773512
0.0782739
0.0792237
0.0802018
0.0812122
0.0822631
0.0833635
0.0845221
0.0857455
0.0870376
0.0884001
0.0898344
0.0913418
0.0929223
0.0945723
0.0962827
0.0980406
0.0998297
0.101633
0.103432
0.105204
0.106924
0.108566
0.110102
0.111503
0.112738
0.11378
0.114603
0.115188
0.0736157
0.0745552
0.0757027
0.163054
0.169317
0.189682
0.196948
0.204432
0.162431
0.161619
0.16133
0.159503
0.157635
0.155651
0.153471
0.151026
0.148261
0.145153
0.141705
0.137941
0.133893
0.129603
0.125116
0.120483
0.11576
0.111002
0.106265
0.101602
0.0970618
0.0926934
0.0885418
0.0846481
0.081045
0.077755
0.0747867
0.072138
0.0697967
0.0677451
0.0659617
0.0644251
0.0631154
0.0620133
0.0611009
0.0603615
0.0597791
0.0593404
0.0590332
0.0588462
0.0587672
0.0587831
0.0588777
0.0590351
0.0592401
0.0594816
0.0597527
0.0600495
0.0603718
0.0607215
0.0611017
0.0615145
0.0619621
0.0624449
0.0629631
0.0733459
0.0742586
0.0754067
0.154207
0.160427
0.180811
0.188123
0.160517
0.161266
0.159544
0.157781
0.155902
0.0725592
0.0731012
0.0739316
0.139726
0.14553
0.151683
0.172018
0.179361
0.159623
0.072639
0.0729862
0.1314
0.13706
0.163327
0.17068
0.158936
0.0730517
0.0731266
0.118347
0.123368
0.128843
0.154761
0.1621
0.158451
0.157571
0.074618
0.0739312
0.0736597
0.110914
0.115677
0.146344
0.153646
0.157133
0.0780336
0.0765147
0.0754029
0.0999598
0.103905
0.108377
0.131255
0.138107
0.145342
0.156896
0.0791355
0.0937613
0.0973644
0.123396
0.130092
0.13722
0.156863
0.0805114
0.0788964
0.0777223
0.0880914
0.0913357
0.115869
0.12236
0.157034
0.156115
0.0805023
0.0792817
0.0806484
0.082973
0.0858523
0.108736
0.114973
0.156342
0.0811249
0.0803333
0.0750219
0.0764534
0.0784186
0.10206
0.107996
0.156775
0.0824096
0.0820585
0.0716857
0.0728028
0.0744298
0.0958948
0.101495
0.157414
0.156622
0.0843539
0.084436
0.068825
0.0696647
0.0856427
0.0902898
0.0955263
0.157319
0.0869304
0.0874247
0.066219
0.066395
0.0669963
0.0852794
0.158218
0.0900951
0.0909728
0.0923253
0.0643471
0.0643481
0.0769813
0.0808752
0.0853452
0.159316
0.158662
0.0950254
0.0967207
0.0632736
0.0627799
0.0626387
0.0735259
0.0770664
0.159806
0.0995248
0.0620626
0.0614774
0.0612242
0.0706125
0.0738251
0.161137
0.102556
0.104407
0.106693
0.0620071
0.0610575
0.0604045
0.0681937
0.0711121
0.162648
0.109603
0.112128
0.0612167
0.0602317
0.0595308
0.0662161
0.0688776
0.164336
0.163665
0.115041
0.117764
0.0605686
0.0595625
0.0646277
0.0670686
0.165372
0.12065
0.123528
0.0613157
0.0600454
0.0590304
0.0615243
0.0633805
0.0656344
0.167252
0.12636
0.129351
0.0608944
0.0596316
0.0624322
0.169307
0.168756
0.13211
0.135169
0.0605605
0.059314
0.0601303
0.0617456
0.0637123
0.170823
0.13784
0.140925
0.061747
0.0603017
0.0590807
0.0597567
0.0612871
0.173064
0.143499
0.146563
0.149871
0.0615064
0.0601048
0.0595591
0.0610258
0.175477
0.17503
0.152026
0.155221
0.0628642
0.0613095
0.0599581
0.0595121
0.0609334
0.177442
0.157259
0.160302
0.062653
0.0611516
0.0584732
0.0595928
0.0609848
0.18002
0.16222
0.165079
0.0641241
0.0624801
0.0610321
0.0597795
0.0611562
0.182765
0.182403
0.166869
0.16951
0.0639336
0.0623456
0.0609512
0.058939
0.0600546
0.0614259
0.185135
0.171163
0.173548
0.0654974
0.0637812
0.0622497
0.0592801
0.0604036
0.188031
0.175051
0.177138
0.17926
0.0653246
0.0636675
0.062193
0.0596767
0.0608137
0.191093
0.190797
0.178477
0.180219
0.0651891
0.0635912
0.0601192
0.0612738
0.193833
0.181377
0.182728
0.184045
0.0668097
0.0650914
0.0635518
0.0606004
0.0617762
0.197028
0.184616
0.185489
0.0666924
0.0650317
0.0611164
0.062316
0.200377
0.200132
0.18585
0.186269
0.0683885
0.0666119
0.0650089
0.0606637
0.0616664
0.062891
0.203439
0.186414
0.186379
0.068283
0.0665659
0.0612217
0.0622518
0.206893
0.186313
0.185838
0.18532
0.0682089
0.0665525
0.0618176
0.062873
0.210492
0.210279
0.184683
0.183773
0.0699166
0.0681622
0.066569
0.062449
0.0635299
0.213817
0.182967
0.181705
0.0716606
0.069822
0.0681379
0.0631095
0.0642185
0.21749
0.180755
0.179182
0.177651
0.0715159
0.0697458
0.0637919
0.0649322
0.221292
0.221094
0.178109
0.176268
0.174494
0.0713946
0.0696898
0.0644905
0.0656647
0.224812
0.173023
0.171041
0.0731003
0.0712982
0.0696561
0.0641906
0.0652012
0.0664114
0.228646
0.169499
0.167337
0.0729705
0.0712279
0.0648764
0.0659226
0.232587
0.232379
0.165735
0.163419
0.16122
0.0747119
0.0728694
0.0711852
0.0655782
0.0666558
0.236203
0.159323
0.157006
0.0745756
0.0727964
0.0711717
0.0662991
0.0674045
0.240116
0.15508
0.152666
0.0744657
0.072751
0.0670415
0.0681728
0.244113
0.243868
0.150715
0.148223
0.145882
0.0761747
0.0743826
0.072734
0.0678065
0.0689643
0.247718
0.143704
0.14132
0.0760442
0.0743245
0.0685929
0.0697801
0.251637
0.251557
0.139139
0.136735
0.134514
0.0777193
0.0759354
0.0742892
0.0683623
0.0693991
0.0706194
0.255309
0.134555
0.132153
0.129938
0.0794114
0.0775608
0.0758486
0.0691461
0.0702231
0.0714801
0.259111
0.127596
0.1254
0.123389
0.0792106
0.0774289
0.0757857
0.0699453
0.0710628
0.0723589
0.262952
0.26279
0.120908
0.118918
0.117105
0.0790424
0.0773262
0.0757496
0.07076
0.0719177
0.266421
0.114507
0.112715
0.0807166
0.0789126
0.0772565
0.071591
0.0727877
0.270064
0.270036
0.110161
0.108394
0.106787
0.0805818
0.0788264
0.0724376
0.073673
0.273699
0.273432
0.104146
0.102563
0.101138
0.0998762
0.0804974
0.0787873
0.073297
0.0745718
0.276797
0.0984265
0.0970341
0.0958056
0.0947508
0.082274
0.0804578
0.0787943
0.0730251
0.0741641
0.0754796
0.280106
0.279954
0.0918557
0.0908596
0.0900642
0.0822158
0.0804547
0.075032
0.282931
0.0871243
0.0864228
0.0859551
0.0840325
0.082184
0.0804801
0.0746752
0.0758938
0.0772925
0.285788
0.285732
0.082978
0.0826393
0.0825647
0.0839603
0.0821735
0.0754902
0.0767455
0.288176
0.0795614
0.0796484
0.0857605
0.083902
0.0821794
0.0762962
0.0775867
0.290422
0.0767455
0.0770158
0.0775914
0.085633
0.0838495
0.082195
0.0770942
0.0784192
0.292427
0.29218
0.0747006
0.075501
0.0854987
0.0837932
0.0778847
0.0792455
0.293641
0.0727466
0.0737974
0.0871052
0.0853541
0.083726
0.0774448
0.0786669
0.0800654
0.294791
0.294586
0.0712017
0.0725243
0.086876
0.0851983
0.0781786
0.0794383
0.295126
0.0701139
0.071721
0.0883894
0.0866469
0.0850344
0.078899
0.0801952
0.0816719
0.295314
0.0695223
0.0714149
0.088118
0.0864283
0.0796013
0.0809328
0.295149
0.294685
0.0694482
0.0896411
0.0878763
0.0862321
0.0802798
0.0816466
0.293903
0.0677805
0.0893913
0.0876752
0.0809281
0.082331
0.292811
0.292352
0.0664181
0.0892013
0.0875284
0.0802864
0.0815396
0.0829793
0.290709
0.0602839
0.0611195
0.0622385
0.0636524
0.0653636
0.0908078
0.0890925
0.0874565
0.0821055
0.0835833
0.288833
0.288378
0.0588135
0.0585517
0.0584197
0.0584359
0.0586206
0.058998
0.0595961
0.0907618
0.0890906
0.0812831
0.0826125
0.0841313
0.286035
0.0595738
0.0590923
0.0586674
0.0583126
0.058043
0.0578754
0.0925136
0.0908547
0.0892257
0.0816692
0.0830433
0.283545
0.283097
0.0608968
0.0604131
0.0599417
0.059487
0.0590549
0.0586532
0.0927093
0.0911159
0.0819511
0.0833767
0.0849921
0.280224
0.0618819
0.0615034
0.0611338
0.060768
0.0604029
0.0600384
0.0596762
0.0945607
0.093095
0.0915757
0.0821036
0.0835878
0.277283
0.276843
0.0618353
0.0614634
0.0611221
0.0608109
0.0605272
0.0602649
0.0950326
0.0936945
0.0821032
0.0836514
0.273592
0.0612909
0.0609188
0.0605792
0.0602725
0.0599973
0.0957162
0.0945299
0.0819307
0.0835447
0.270335
0.0615226
0.0611223
0.060737
0.0603718
0.0600298
0.0597143
0.0594278
0.0978867
0.0973988
0.0966266
0.0956206
0.0800995
0.0815747
0.0832512
0.151221
0.155934
0.160818
0.267104
0.266396
0.0607942
0.0604474
0.0601138
0.0597938
0.0594861
0.0591913
0.0923182
0.0940722
0.0955866
0.0968162
0.0977205
0.0982694
0.0984507
0.098275
0.0810363
0.142454
0.147096
0.151928
0.156934
0.262943
0.0605278
0.0602371
0.0599498
0.0596679
0.0593924
0.0591241
0.0588644
0.0761509
0.0783003
0.0805288
0.0828004
0.0850759
0.0873158
0.0894812
0.0915337
0.0934349
0.0788282
0.0803363
0.082088
0.129585
0.133899
0.138445
0.143201
0.148149
0.259567
0.258858
0.0593143
0.0591252
0.0589316
0.058736
0.0585398
0.068173
0.0694495
0.0708788
0.0724651
0.0742061
0.0760918
0.0781055
0.0780589
0.079521
0.121448
0.125604
0.134674
0.13954
0.255307
0.0579157
0.0578388
0.0577715
0.0577053
0.0576344
0.0575563
0.0574697
0.0642252
0.0647343
0.0653049
0.065946
0.066667
0.067479
0.0683954
0.069429
0.0705909
0.0773052
0.0786628
0.113653
0.11762
0.126391
0.131146
0.251878
0.251163
0.0564652
0.0562922
0.0561663
0.0560864
0.0560473
0.0560401
0.0560548
0.0631472
0.0635341
0.0639245
0.0643226
0.0647334
0.0651627
0.0656175
0.0661053
0.0666348
0.0766785
0.0778626
0.102848
0.106255
0.110001
0.118407
0.123019
0.247597
0.247144
0.0557624
0.0554566
0.0551927
0.0549739
0.0548015
0.0546746
0.0614313
0.0619539
0.0624764
0.0629921
0.0634962
0.063987
0.0644654
0.064935
0.0654005
0.0763119
0.0772463
0.096193
0.099311
0.102803
0.110784
0.115219
0.244179
0.24345
0.0556966
0.0552869
0.0549178
0.0545897
0.054302
0.0540528
0.0598613
0.060291
0.060755
0.0612529
0.061783
0.062342
0.0629245
0.0635227
0.0761724
0.0763504
0.0769572
0.0876997
0.0900794
0.0928839
0.103583
0.107812
0.239912
0.05689
0.0562908
0.0557475
0.0552569
0.0548152
0.0544193
0.0540658
0.058817
0.0591296
0.0594545
0.059795
0.0601563
0.060542
0.0609555
0.0613997