# vtk DataFile Version 1.0
Unstructured Grid Example
ASCII

DATASET UNSTRUCTURED_GRID
POINTS 696 float
5 611 0
9 611 0
13 611 0
19 611 0
27 611 0
32 611 0
37 611 0
42 611 0
47 611 0
51 611 0
57 611 0
62 611 0
67 611 0
77 611 0
87 611 0
94 611 0
103 611 0
113 611 0
126 611 0
141 611 0
153 611 0
166 611 0
179 611 0
190 611 0
202 611 0
219 611 0
233 611 0
255 611 0
269 611 0
283 611 0
297 611 0
311 611 0
326 611 0
351 611 0
374 611 0
400 611 0
417 611 0
437 611 0
460 611 0
489 611 0
518 611 0
552 611 0
577 611 0
599 611 0
618 611 0
639 611 0
658 611 0
675 611 0
692 611 0
706 611 0
717 611 0
728 611 0
736 611 0
745 611 0
752 611 0
759 611 0
0 608 0
762 606 0
0 604 0
0 600 0
762 599 0
45 598 0
762 594 0
0 593 0
49 593 0
45 592 0
45 588 0
51 588 0
0 587 0
53 585 0
762 585 0
45 584 0
54 581 0
0 580 0
46 579 0
56 577 0
762 576 0
46 575 0
0 573 0
57 573 0
46 570 0
59 569 0
762 569 0
0 567 0
46 565 0
60 565 0
46 561 0
63 559 0
0 556 0
762 556 0
66 554 0
47 553 0
0 549 0
47 547 0
69 547 0
762 544 0
47 541 0
0 540 0
74 540 0
48 536 0
76 535 0
0 534 0
80 530 0
762 529 0
0 527 0
49 527 0
84 526 0
49 521 0
0 520 0
89 520 0
94 516 0
0 513 0
50 512 0
99 509 0
0 506 0
762 506 0
104 505 0
51 503 0
108 499 0
182 496 0
0 495 0
52 495 0
112 494 0
176 493 0
180 492 0
116 491 0
170 491 0
53 489 0
166 489 0
176 489 0
162 488 0
762 487 0
116 486 0
158 486 0
173 486 0
108 485 0
112 485 0
154 485 0
104 484 0
0 483 0
99 483 0
149 483 0
94 482 0
170 482 0
54 481 0
84 480 0
142 480 0
90 479 0
95 478 0
99 478 0
105 478 0
109 478 0
113 478 0
118 478 0
137 478 0
166 478 0
123 477 0
132 477 0
0 476 0
55 475 0
162 474 0
159 471 0
0 469 0
56 468 0
158 465 0
0 462 0
162 460 0
302 460 0
58 459 0
164 456 0
762 456 0
289 454 0
0 453 0
59 453 0
295 453 0
167 452 0
285 451 0
278 449 0
289 449 0
172 448 0
275 447 0
60 446 0
271 446 0
284 446 0
267 444 0
0 443 0
280 443 0
176 442 0
264 442 0
259 440 0
275 439 0
255 438 0
182 437 0
62 436 0
252 436 0
270 436 0
0 435 0
266 434 0
186 433 0
245 433 0
263 432 0
241 431 0
260 430 0
184 429 0
235 429 0
64 428 0
180 428 0
256 428 0
230 427 0
175 426 0
253 426 0
0 424 0
168 424 0
223 424 0
159 423 0
163 423 0
250 423 0
447 423 0
66 422 0
152 421 0
148 420 0
216 420 0
247 420 0
140 419 0
144 419 0
136 418 0
211 418 0
440 418 0
132 417 0
242 417 0
67 416 0
121 416 0
126 416 0
207 416 0
762 416 0
0 415 0
238 415 0
113 414 0
149 413 0
153 413 0
157 413 0
164 413 0
170 413 0
176 413 0
180 413 0
186 413 0
194 413 0
199 413 0
435 413 0
108 412 0
118 412 0
124 412 0
131 412 0
135 412 0
140 412 0
144 412 0
234 412 0
102 411 0
230 410 0
70 408 0
424 408 0
430 408 0
0 407 0
226 407 0
417 403 0
422 402 0
229 401 0
72 400 0
413 400 0
234 398 0
409 398 0
417 398 0
0 396 0
405 396 0
414 395 0
74 394 0
238 394 0
762 394 0
403 393 0
400 391 0
411 391 0
397 389 0
408 389 0
245 387 0
404 387 0
77 385 0
392 385 0
402 384 0
389 383 0
0 382 0
399 382 0
253 381 0
385 381 0
381 379 0
396 379 0
258 376 0
378 376 0
391 375 0
375 374 0
80 373 0
389 372 0
762 372 0
265 371 0
370 371 0
0 370 0
385 369 0
269 367 0
366 367 0
83 366 0
380 365 0
275 364 0
361 364 0
357 362 0
377 362 0
279 361 0
86 359 0
354 359 0
374 359 0
284 358 0
349 356 0
370 356 0
0 355 0
292 355 0
367 353 0
343 352 0
297 351 0
363 350 0
762 350 0
90 349 0
340 349 0
300 348 0
335 347 0
358 346 0
300 344 0
293 343 0
330 343 0
0 342 0
93 341 0
287 341 0
354 341 0
277 340 0
282 340 0
326 340 0
270 338 0
349 338 0
261 337 0
265 337 0
321 337 0
313 336 0
253 335 0
257 335 0
309 335 0
248 334 0
305 334 0
344 334 0
502 334 0
294 333 0
298 333 0
237 332 0
242 332 0
289 332 0
0 331 0
233 331 0
279 331 0
283 331 0
99 330 0
269 330 0
275 330 0
226 329 0
265 329 0
338 329 0
493 329 0
498 329 0
219 328 0
255 328 0
260 328 0
215 327 0
249 327 0
489 327 0
208 326 0
242 326 0
202 325 0
231 325 0
238 325 0
495 325 0
198 324 0
227 324 0
340 324 0
221 323 0
209 322 0
214 322 0
484 322 0
491 322 0
180 321 0
201 321 0
205 321 0
0 320 0
104 320 0
195 320 0
188 319 0
479 319 0
488 319 0
346 318 0
160 317 0
171 317 0
475 317 0
350 315 0
107 314 0
152 314 0
471 314 0
484 314 0
146 313 0
355 311 0
468 311 0
482 311 0
762 310 0
0 309 0
110 308 0
463 308 0
478 308 0
359 307 0
459 305 0
475 305 0
114 303 0
365 302 0
454 302 0
472 301 0
370 299 0
0 298 0
117 297 0
448 297 0
469 297 0
376 296 0
382 294 0
445 294 0
465 293 0
441 292 0
388 290 0
122 289 0
438 289 0
461 288 0
393 287 0
434 287 0
762 287 0
0 285 0
397 285 0
458 285 0
126 284 0
427 283 0
401 282 0
455 282 0
131 279 0
452 279 0
397 278 0
422 278 0
393 277 0
134 275 0
390 275 0
416 275 0
449 275 0
0 274 0
139 274 0
386 273 0
409 273 0
446 272 0
381 270 0
402 270 0
140 268 0
377 268 0
443 268 0
398 267 0
394 266 0
373 265 0
446 265 0
390 264 0
367 263 0
146 262 0
384 262 0
450 262 0
362 260 0
381 260 0
454 260 0
377 259 0
762 259 0
0 257 0
151 257 0
357 257 0
374 257 0
353 255 0
461 255 0
368 254 0
156 252 0
349 252 0
362 252 0
466 252 0
344 250 0
359 250 0
355 249 0
341 247 0
350 247 0
472 247 0
163 246 0
336 245 0
347 245 0
0 243 0
332 243 0
341 243 0
478 243 0
328 241 0
337 241 0
172 239 0
332 239 0
485 238 0
326 236 0
762 235 0
321 233 0
0 230 0
494 230 0
186 229 0
312 229 0
304 226 0
504 223 0
199 221 0
209 217 0
514 213 0
222 211 0
0 210 0
762 209 0
232 206 0
518 206 0
243 201 0
254 198 0
522 197 0
261 195 0
273 191 0
762 191 0
280 190 0
525 189 0
287 188 0
0 187 0
294 186 0
300 184 0
528 183 0
309 182 0
316 181 0
325 179 0
334 177 0
342 176 0
530 176 0
354 174 0
762 174 0
363 172 0
376 170 0
378 170 0
389 169 0
535 169 0
407 167 0
0 166 0
419 166 0
432 165 0
540 165 0
448 164 0
460 163 0
472 163 0
484 162 0
494 162 0
502 161 0
508 161 0
514 161 0
523 160 0
545 160 0
548 158 0
530 157 0
762 155 0
536 154 0
551 154 0
542 152 0
555 151 0
545 150 0
549 148 0
560 147 0
553 146 0
563 144 0
558 143 0
0 141 0
762 141 0
568 138 0
762 123 0
0 114 0
762 113 0
762 104 0
0 94 0
762 93 0
762 82 0
0 74 0
762 74 0
762 67 0
0 63 0
762 60 0
719 55 0
712 53 0
726 53 0
0 51 0
703 51 0
732 51 0
762 51 0
697 50 0
692 49 0
739 49 0
686 47 0
680 46 0
762 46 0
743 44 0
683 41 0
762 41 0
744 40 0
0 39 0
686 37 0
742 36 0
762 34 0
692 32 0
738 32 0
762 30 0
0 29 0
697 26 0
732 26 0
762 24 0
0 23 0
700 22 0
727 22 0
706 18 0
720 18 0
762 18 0
711 17 0
0 14 0
762 12 0
0 7 0
762 5 0
1 1 0
6 1 0
10 1 0
19 1 0
25 1 0
37 1 0
51 1 0
60 1 0
70 1 0
81 1 0
93 1 0
107 1 0
124 1 0
152 1 0
183 1 0
202 1 0
226 1 0
246 1 0
264 1 0
290 1 0
309 1 0
331 1 0
351 1 0
377 1 0
393 1 0
412 1 0
430 1 0
449 1 0
468 1 0
490 1 0
509 1 0
523 1 0
537 1 0
550 1 0
563 1 0
577 1 0
591 1 0
611 1 0
624 1 0
640 1 0
651 1 0
664 1 0
670 1 0
680 1 0
685 1 0
693 1 0
701 1 0
705 1 0
710 1 0
717 1 0
721 1 0
726 1 0
731 1 0
738 1 0
745 1 0
749 1 0
756 1 0
760 1 0
CELLS 696 1392
1 0
1 1
1 2
1 3
1 4
1 5
1 6
1 7
1 8
1 9
1 10
1 11
1 12
1 13
1 14
1 15
1 16
1 17
1 18
1 19
1 20
1 21
1 22
1 23
1 24
1 25
1 26
1 27
1 28
1 29
1 30
1 31
1 32
1 33
1 34
1 35
1 36
1 37
1 38
1 39
1 40
1 41
1 42
1 43
1 44
1 45
1 46
1 47
1 48
1 49
1 50
1 51
1 52
1 53
1 54
1 55
1 56
1 57
1 58
1 59
1 60
1 61
1 62
1 63
1 64
1 65
1 66
1 67
1 68
1 69
1 70
1 71
1 72
1 73
1 74
1 75
1 76
1 77
1 78
1 79
1 80
1 81
1 82
1 83
1 84
1 85
1 86
1 87
1 88
1 89
1 90
1 91
1 92
1 93
1 94
1 95
1 96
1 97
1 98
1 99
1 100
1 101
1 102
1 103
1 104
1 105
1 106
1 107
1 108
1 109
1 110
1 111
1 112
1 113
1 114
1 115
1 116
1 117
1 118
1 119
1 120
1 121
1 122
1 123
1 124
1 125
1 126
1 127
1 128
1 129
1 130
1 131
1 132
1 133
1 134
1 135
1 136
1 137
1 138
1 139
1 140
1 141
1 142
1 143
1 144
1 145
1 146
1 147
1 148
1 149
1 150
1 151
1 152
1 153
1 154
1 155
1 156
1 157
1 158
1 159
1 160
1 161
1 162
1 163
1 164
1 165
1 166
1 167
1 168
1 169
1 170
1 171
1 172
1 173
1 174
1 175
1 176
1 177
1 178
1 179
1 180
1 181
1 182
1 183
1 184
1 185
1 186
1 187
1 188
1 189
1 190
1 191
1 192
1 193
1 194
1 195
1 196
1 197
1 198
1 199
1 200
1 201
1 202
1 203
1 204
1 205
1 206
1 207
1 208
1 209
1 210
1 211
1 212
1 213
1 214
1 215
1 216
1 217
1 218
1 219
1 220
1 221
1 222
1 223
1 224
1 225
1 226
1 227
1 228
1 229
1 230
1 231
1 232
1 233
1 234
1 235
1 236
1 237
1 238
1 239
1 240
1 241
1 242
1 243
1 244
1 245
1 246
1 247
1 248
1 249
1 250
1 251
1 252
1 253
1 254
1 255
1 256
1 257
1 258
1 259
1 260
1 261
1 262
1 263
1 264
1 265
1 266
1 267
1 268
1 269
1 270
1 271
1 272
1 273
1 274
1 275
1 276
1 277
1 278
1 279
1 280
1 281
1 282
1 283
1 284
1 285
1 286
1 287
1 288
1 289
1 290
1 291
1 292
1 293
1 294
1 295
1 296
1 297
1 298
1 299
1 300
1 301
1 302
1 303
1 304
1 305
1 306
1 307
1 308
1 309
1 310
1 311
1 312
1 313
1 314
1 315
1 316
1 317
1 318
1 319
1 320
1 321
1 322
1 323
1 324
1 325
1 326
1 327
1 328
1 329
1 330
1 331
1 332
1 333
1 334
1 335
1 336
1 337
1 338
1 339
1 340
1 341
1 342
1 343
1 344
1 345
1 346
1 347
1 348
1 349
1 350
1 351
1 352
1 353
1 354
1 355
1 356
1 357
1 358
1 359
1 360
1 361
1 362
1 363
1 364
1 365
1 366
1 367
1 368
1 369
1 370
1 371
1 372
1 373
1 374
1 375
1 376
1 377
1 378
1 379
1 380
1 381
1 382
1 383
1 384
1 385
1 386
1 387
1 388
1 389
1 390
1 391
1 392
1 393
1 394
1 395
1 396
1 397
1 398
1 399
1 400
1 401
1 402
1 403
1 404
1 405
1 406
1 407
1 408
1 409
1 410
1 411
1 412
1 413
1 414
1 415
1 416
1 417
1 418
1 419
1 420
1 421
1 422
1 423
1 424
1 425
1 426
1 427
1 428
1 429
1 430
1 431
1 432
1 433
1 434
1 435
1 436
1 437
1 438
1 439
1 440
1 441
1 442
1 443
1 444
1 445
1 446
1 447
1 448
1 449
1 450
1 451
1 452
1 453
1 454
1 455
1 456
1 457
1 458
1 459
1 460
1 461
1 462
1 463
1 464
1 465
1 466
1 467
1 468
1 469
1 470
1 471
1 472
1 473
1 474
1 475
1 476
1 477
1 478
1 479
1 480
1 481
1 482
1 483
1 484
1 485
1 486
1 487
1 488
1 489
1 490
1 491
1 492
1 493
1 494
1 495
1 496
1 497
1 498
1 499
1 500
1 501
1 502
1 503
1 504
1 505
1 506
1 507
1 508
1 509
1 510
1 511
1 512
1 513
1 514
1 515
1 516
1 517
1 518
1 519
1 520
1 521
1 522
1 523
1 524
1 525
1 526
1 527
1 528
1 529
1 530
1 531
1 532
1 533
1 534
1 535
1 536
1 537
1 538
1 539
1 540
1 541
1 542
1 543
1 544
1 545
1 546
1 547
1 548
1 549
1 550
1 551
1 552
1 553
1 554
1 555
1 556
1 557
1 558
1 559
1 560
1 561
1 562
1 563
1 564
1 565
1 566
1 567
1 568
1 569
1 570
1 571
1 572
1 573
1 574
1 575
1 576
1 577
1 578
1 579
1 580
1 581
1 582
1 583
1 584
1 585
1 586
1 587
1 588
1 589
1 590
1 591
1 592
1 593
1 594
1 595
1 596
1 597
1 598
1 599
1 600
1 601
1 602
1 603
1 604
1 605
1 606
1 607
1 608
1 609
1 610
1 611
1 612
1 613
1 614
1 615
1 616
1 617
1 618
1 619
1 620
1 621
1 622
1 623
1 624
1 625
1 626
1 627
1 628
1 629
1 630
1 631
1 632
1 633
1 634
1 635
1 636
1 637
1 638
1 639
1 640
1 641
1 642
1 643
1 644
1 645
1 646
1 647
1 648
1 649
1 650
1 651
1 652
1 653
1 654
1 655
1 656
1 657
1 658
1 659
1 660
1 661
1 662
1 663
1 664
1 665
1 666
1 667
1 668
1 669
1 670
1 671
1 672
1 673
1 674
1 675
1 676
1 677
1 678
1 679
1 680
1 681
1 682
1 683
1 684
1 685
1 686
1 687
1 688
1 689
1 690
1 691
1 692
1 693
1 694
1 695
CELL_TYPES 696
1 1 1 1 1 1 1 1 1 1 1 1 1 1 1 1 1 1 1 1 1 1 1 1 1 1 1 1 1 1 1 1 1 1 1 1 1 1 1 1 1 1 1 1 1 1 1 1 1 1 1 1 1 1 1 1 1 1 1 1 1 1 1 1 1 1 1 1 1 1 1 1 1 1 1 1 1 1 1 1 1 1 1 1 1 1 1 1 1 1 1 1 1 1 1 1 1 1 1 1 1 1 1 1 1 1 1 1 1 1 1 1 1 1 1 1 1 1 1 1 1 1 1 1 1 1 1 1 1 1 1 1 1 1 1 1 1 1 1 1 1 1 1 1 1 1 1 1 1 1 1 1 1 1 1 1 1 1 1 1 1 1 1 1 1 1 1 1 1 1 1 1 1 1 1 1 1 1 1 1 1 1 1 1 1 1 1 1 1 1 1 1 1 1 1 1 1 1 1 1 1 1 1 1 1 1 1 1 1 1 1 1 1 1 1 1 1 1 1 1 1 1 1 1 1 1 1 1 1 1 1 1 1 1 1 1 1 1 1 1 1 1 1 1 1 1 1 1 1 1 1 1 1 1 1 1 1 1 1 1 1 1 1 1 1 1 1 1 1 1 1 1 1 1 1 1 1 1 1 1 1 1 1 1 1 1 1 1 1 1 1 1 1 1 1 1 1 1 1 1 1 1 1 1 1 1 1 1 1 1 1 1 1 1 1 1 1 1 1 1 1 1 1 1 1 1 1 1 1 1 1 1 1 1 1 1 1 1 1 1 1 1 1 1 1 1 1 1 1 1 1 1 1 1 1 1 1 1 1 1 1 1 1 1 1 1 1 1 1 1 1 1 1 1 1 1 1 1 1 1 1 1 1 1 1 1 1 1 1 1 1 1 1 1 1 1 1 1 1 1 1 1 1 1 1 1 1 1 1 1 1 1 1 1 1 1 1 1 1 1 1 1 1 1 1 1 1 1 1 1 1 1 1 1 1 1 1 1 1 1 1 1 1 1 1 1 1 1 1 1 1 1 1 1 1 1 1 1 1 1 1 1 1 1 1 1 1 1 1 1 1 1 1 1 1 1 1 1 1 1 1 1 1 1 1 1 1 1 1 1 1 1 1 1 1 1 1 1 1 1 1 1 1 1 1 1 1 1 1 1 1 1 1 1 1 1 1 1 1 1 1 1 1 1 1 1 1 1 1 1 1 1 1 1 1 1 1 1 1 1 1 1 1 1 1 1 1 1 1 1 1 1 1 1 1 1 1 1 1 1 1 1 1 1 1 1 1 1 1 1 1 1 1 1 1 1 1 1 1 1 1 1 1 1 1 1 1 1 1 1 1 1 1 1 1 1 1 1 1 1 1 1 1 1 1 1 1 1 1 1 1 1 1 1 1 1 1 1 1 1 1 1 1 1 1 1 1 1 1 1 1 1 1 1 1 1 1 1 1 1 1 1 1 1 1 1 1 1 1 1 1 1 1 1 1 1 1 1 1 1 1 1 1 1 1 1 1 1 1 1 1 1 1 1 1 1 1 1 1 1 1 1 1 1 1 1 1 1 1 1 1 1 1 1 1 1 
CELL_DATA 696
COLOR_SCALARS lut 1
0.0544581
0.0680148
0.0822579
0.0990464
0.0997529
0.0889401
0.0768645
0.0682381
0.0659259
0.0693193
0.0824072
0.0986322
0.117632
0.159249
0.201755
0.231131
0.268472
0.308296
0.358133
0.411036
0.439568
0.444619
0.443427
0.444194
0.449624
0.468728
0.493241
0.543884
0.573493
0.577504
0.575179
0.575513
0.581188
0.608128
0.649328
0.70567
0.713252
0.707046
0.707683
0.727123
0.768533
0.841168
0.900578
0.860858
0.765729
0.657165
0.558854
0.47089
0.382928
0.31049
0.253571
0.19665
0.155321
0.1095
0.0762698
0.050045
0.0491261
0.0564173
0.0626261
0.079159
0.0853268
0.0729508
0.1095
0.111099
0.0661765
0.0664812
0.0643534
0.0637246
0.137766
0.0658379
0.155321
0.0647563
0.0670238
0.163017
0.0659996
0.0718856
0.201824
0.0700294
0.176881
0.0754848
0.0763428
0.0821351
0.238046
0.181887
0.0834608
0.0869022
0.0894236
0.097345
0.186028
0.305315
0.107423
0.100148
0.188872
0.110259
0.120103
0.367406
0.1206
0.191679
0.136349
0.128336
0.146157
0.192966
0.158995
0.445019
0.195016
0.144128
0.169132
0.155431
0.198005
0.175918
0.171214
0.20061
0.170675
0.147406
0.203421
0.564028
0.127913
0.17966
0.100285
0.112528
0.208192
0.173993
0.08106
0.0837752
0.0958314
0.0767544
0.0715358
0.163864
0.0697151
0.0786504
0.073726
0.662341
0.0654914
0.0781884
0.0712197
0.0572689
0.0587421
0.0857401
0.0580063
0.213857
0.0637465
0.0944019
0.0758494
0.0700752
0.153287
0.119504
0.104915
0.0914275
0.0744399
0.065595
0.0601311
0.0603867
0.0631054
0.070464
0.108762
0.072236
0.0838348
0.105391
0.217406
0.150939
0.0774294
0.0835938
0.221395
0.155815
0.0959051
0.22545
0.103673
0.199231
0.171061
0.112056
0.822721
0.109597
0.231255
0.185433
0.143817
0.117352
0.0868316
0.0686336
0.10449
0.115266
0.0636658
0.202247
0.0631347
0.0805906
0.062833
0.238038
0.0698734
0.0988603
0.062434
0.0650816
0.0650141
0.0668888
0.0843421
0.210097
0.0675184
0.0633462
0.243683
0.0630215
0.081664
0.0722119
0.0643808
0.0744077
0.0660823
0.0744865
0.0795126
0.195901
0.0701917
0.0672893
0.083256
0.0691961
0.0692813
0.251967
0.0683568
0.0891728
0.0663843
0.0667486
0.0733162
0.299104
0.181792
0.0619808
0.0602523
0.0964466
0.0772617
0.0595208
0.0589261
0.0588774
0.104918
0.242192
0.0598871
0.077774
0.169402
0.0813639
0.0671955
0.110769
1
0.259263
0.0760958
0.115664
0.0601583
0.0621642
0.0647884
0.0700299
0.0749555
0.0804396
0.0847727
0.0931978
0.107241
0.114117
0.197532
0.13835
0.0929682
0.0723519
0.061282
0.0592082
0.0592102
0.0602275
0.0744788
0.156364
0.0728544
0.158038
0.11602
0.154102
0.266174
0.0767416
0.0786511
0.0961791
0.084604
0.157785
0.067195
0.0970075
0.062966
0.0737438
0.276565
0.0621909
0.0664125
0.16415
0.118113
0.990128
0.0592054
0.0594899
0.0639012
0.060283
0.0612067
0.157726
0.0586466
0.182944
0.0611319
0.0605827
0.0623774
0.290905
0.0602974
0.184591
0.0652844
0.0685912
0.0618493
0.18523
0.0683643
0.0632966
0.0699526
0.221948
0.0666083
0.971778
0.167833
0.0731869
0.304282
0.0676043
0.151162
0.0729496
0.248452
0.0696048
0.130324
0.0760735
0.0792767
0.0721309
0.114847
0.274242
0.0790209
0.0747929
0.0987183
0.0824277
0.0761188
0.321873
0.0828843
0.0786517
0.0857522
0.0729623
0.0796739
0.96324
0.296001
0.0852865
0.0697284
0.0899068
0.081168
0.0638411
0.0585929
0.0910309
0.337716
0.284386
0.0588271
0.0852441
0.0616857
0.0598532
0.093371
0.0604512
0.0821736
0.061705
0.0602078
0.0976876
0.0925919
0.0601276
0.0590389
0.0853282
0.0593005
0.0783371
0.0782903
0.135073
0.0661415
0.0696348
0.0564591
0.056221
0.0658121
0.352515
0.0553563
0.0636845
0.0655944
0.244172
0.0604698
0.063711
0.0542262
0.0607215
0.0774122
0.0848014
0.101164
0.0559718
0.0590779
0.0608907
0.0574013
0.0585355
0.073381
0.0647836
0.0568209
0.0791602
0.0541155
0.0565779
0.0822997
0.0951199
0.054896
0.085068
0.0560897
0.0630951
0.0591534
0.0631578
0.0689552
0.201726
0.0825747
0.0711369
0.368227
0.206798
0.111266
0.153876
0.0638184
0.0636924
0.110332
0.219021
0.230077
0.0673867
0.129474
0.187558
0.196475
0.0699651
0.0631542
0.18265
0.152929
0.0709362
0.0656462
0.966416
0.384969
0.173057
0.0761886
0.0663682
0.168172
0.0793949
0.0687294
0.163179
0.173659
0.0851069
0.0732825
0.163224
0.402663
0.156062
0.0898021
0.0782654
0.142744
0.121588
0.0912158
0.0820098
0.0960063
0.0970341
0.142655
0.0972176
0.0878606
0.0807596
0.101838
0.965706
0.424762
0.0738516
0.0896113
0.123525
0.107484
0.0708486
0.0900786
0.0985646
0.088563
0.0617783
0.106069
0.0616829
0.0866279
0.0618725
0.098649
0.0852277
0.444092
0.0856829
0.0632521
0.0827026
0.0816909
0.0634858
0.0707176
0.0926114
0.0636775
0.0832262
0.0697991
0.0660547
0.0612405
0.0864218
0.0653675
0.0622885
0.128975
0.0625309
0.097828
0.0601369
0.0629822
0.114128
0.0605385
0.899987
0.476738
0.171701
0.0586666
0.0608688
0.0590574
0.153588
0.0598809
0.217195
0.0586068
0.0574131
0.183163
0.0625098
0.0582476
0.0570212
0.0639896
0.0577996
0.220356
0.2757
0.0744299
0.06014
0.5053
0.0884525
0.0648568
0.25442
0.108599
0.0729744
0.336337
0.0900141
0.286727
0.122755
0.841209
0.154729
0.533276
0.300752
0.388087
0.196487
0.208881
0.286727
0.420383
0.430962
0.258728
0.402665
0.579247
0.78842
0.359847
0.235901
0.313168
0.271385
0.203463
0.248149
0.216588
0.73591
0.203824
0.171926
0.196503
0.636683
0.195192
0.198911
0.146476
0.211016
0.223426
0.242035
0.261369
0.278276
0.115715
0.302766
0.646595
0.32115
0.347672
0.351408
0.371404
0.0900497
0.400742
0.693721
0.403387
0.384209
0.0800635
0.352808
0.326239
0.293674
0.253648
0.21303
0.179915
0.155259
0.130877
0.0996483
0.0707573
0.069033
0.0837702
0.542083
0.0752702
0.065216
0.0677055
0.0685749
0.0665369
0.0661087
0.0828284
0.0696912
0.0990486
0.0839938
0.725272
0.467084
0.139855
0.377811
0.605252
0.33044
0.289933
0.501933
0.241885
0.194999
0.398451
0.162007
0.135002
0.341535
0.11157
0.150299
0.146569
0.134804
0.279443
0.126073
0.117429
0.0892887
0.107834
0.0933253
0.102307
0.0823842
0.0892307
0.0821978
0.0937063
0.0865937
0.0797131
0.0933954
0.217347
0.0928723
0.0971363
0.0829313
0.105043
0.104677
0.0867242
0.165636
0.113298
0.112749
0.090606
0.134782
0.111354
0.109862
0.101358
0.0999075
0.0860034
0.0964071
0.0900154
0.0707857
0.0599811
0.0493264
0.0447514
0.0599811
0.0762698
0.119532
0.150173
0.212172
0.284618
0.331186
0.382928
0.439845
0.501936
0.574374
0.662265
0.795693
0.79404
0.769704
0.741885
0.721521
0.705051
0.683185
0.669828
0.656772
0.645838
0.634776
0.629074
0.62358
0.618705
0.613813
0.611248
0.604747
0.577921
0.555367
0.537799
0.527365
0.523357
0.516229
0.477023
0.383926
0.324831
0.261122
0.222743
0.180979
0.162297
0.132335
0.118239
0.0982473
0.0828063
0.0774994
0.07344
0.0734156
0.0760735
0.0810834
0.0869126
0.0923542
0.0869324
0.0771749
0.0551876
0.0443176
