# vtk DataFile Version 1.0
Unstructured Grid Example
ASCII

DATASET UNSTRUCTURED_GRID
POINTS 3820 float
5 611 0
9 611 0
13 611 0
19 611 0
27 611 0
32 611 0
37 611 0
42 611 0
47 611 0
51 611 0
57 611 0
62 611 0
67 611 0
77 611 0
87 611 0
94 611 0
103 611 0
113 611 0
126 611 0
141 611 0
153 611 0
166 611 0
179 611 0
190 611 0
202 611 0
219 611 0
233 611 0
255 611 0
269 611 0
283 611 0
297 611 0
311 611 0
326 611 0
351 611 0
374 611 0
400 611 0
417 611 0
437 611 0
460 611 0
489 611 0
518 611 0
552 611 0
577 611 0
599 611 0
618 611 0
639 611 0
658 611 0
675 611 0
692 611 0
706 611 0
717 611 0
728 611 0
736 611 0
745 611 0
752 611 0
759 611 0
72 609 0
0 608 0
7 608 0
23 608 0
34 607 0
43 607 0
12 606 0
52 606 0
748 606 0
756 606 0
762 606 0
19 605 0
38 605 0
739 605 0
0 604 0
8 604 0
28 604 0
46 604 0
58 604 0
70 604 0
98 604 0
733 604 0
4 603 0
83 603 0
759 603 0
15 602 0
64 602 0
245 602 0
752 602 0
23 601 0
35 601 0
41 601 0
212 601 0
535 601 0
695 601 0
747 601 0
0 600 0
53 600 0
77 600 0
185 600 0
718 600 0
115 599 0
504 599 0
762 599 0
27 598 0
38 598 0
45 598 0
57 598 0
105 598 0
727 598 0
756 598 0
3 597 0
9 597 0
49 597 0
65 597 0
71 597 0
91 597 0
157 597 0
261 597 0
680 597 0
136 596 0
475 596 0
750 596 0
14 595 0
20 595 0
376 594 0
435 594 0
706 594 0
762 594 0
0 593 0
28 593 0
34 593 0
39 593 0
49 593 0
53 593 0
62 593 0
637 593 0
740 593 0
45 592 0
57 592 0
397 592 0
6 591 0
67 591 0
79 591 0
277 591 0
319 591 0
562 591 0
667 591 0
757 591 0
416 590 0
17 589 0
23 589 0
37 589 0
170 589 0
599 589 0
691 589 0
11 588 0
45 588 0
51 588 0
102 588 0
227 588 0
347 588 0
721 588 0
732 588 0
746 588 0
0 587 0
41 587 0
199 587 0
28 586 0
58 586 0
65 586 0
126 586 0
53 585 0
90 585 0
458 585 0
520 585 0
755 585 0
762 585 0
45 584 0
49 584 0
80 584 0
5 583 0
22 583 0
35 583 0
73 583 0
113 582 0
185 582 0
14 581 0
41 581 0
54 581 0
298 581 0
0 580 0
50 580 0
60 580 0
67 580 0
153 580 0
542 580 0
650 580 0
712 580 0
741 580 0
46 579 0
33 578 0
619 578 0
754 578 0
9 577 0
27 577 0
38 577 0
52 577 0
56 577 0
81 577 0
62 576 0
74 576 0
249 576 0
762 576 0
46 575 0
67 575 0
137 575 0
370 575 0
498 575 0
728 574 0
0 573 0
42 573 0
52 573 0
57 573 0
17 572 0
91 572 0
106 572 0
210 572 0
32 571 0
578 571 0
46 570 0
65 570 0
73 570 0
438 570 0
669 570 0
698 570 0
751 570 0
37 569 0
59 569 0
323 569 0
762 569 0
42 568 0
346 568 0
400 568 0
740 568 0
0 567 0
51 567 0
55 567 0
9 566 0
26 566 0
67 566 0
82 566 0
162 566 0
182 566 0
19 565 0
46 565 0
60 565 0
93 564 0
231 564 0
273 564 0
33 563 0
40 563 0
51 563 0
56 562 0
293 562 0
635 562 0
4 561 0
46 561 0
27 560 0
68 560 0
73 560 0
118 560 0
754 560 0
13 559 0
63 559 0
101 559 0
601 559 0
709 559 0
51 558 0
59 558 0
79 558 0
730 558 0
33 557 0
44 557 0
55 557 0
89 557 0
0 556 0
20 556 0
39 556 0
556 556 0
762 556 0
252 555 0
480 555 0
742 555 0
7 554 0
66 554 0
72 554 0
206 554 0
47 553 0
83 553 0
142 553 0
26 552 0
55 552 0
77 552 0
95 552 0
688 552 0
381 551 0
41 550 0
51 550 0
60 550 0
0 549 0
17 549 0
311 549 0
653 549 0
752 549 0
524 548 0
34 547 0
47 547 0
69 547 0
75 547 0
82 547 0
54 546 0
64 545 0
88 545 0
104 545 0
422 545 0
8 544 0
168 544 0
356 544 0
724 544 0
762 544 0
15 542 0
41 542 0
115 542 0
128 542 0
156 542 0
188 542 0
33 541 0
47 541 0
61 541 0
83 541 0
742 541 0
0 540 0
56 540 0
67 540 0
74 540 0
274 540 0
333 540 0
24 539 0
94 538 0
9 537 0
220 537 0
48 536 0
71 536 0
107 536 0
35 535 0
61 535 0
76 535 0
83 535 0
145 535 0
243 535 0
0 534 0
16 534 0
168 534 0
615 534 0
44 533 0
55 533 0
180 533 0
293 533 0
195 532 0
29 531 0
98 531 0
6 530 0
74 530 0
80 530 0
126 530 0
696 530 0
732 530 0
60 529 0
67 529 0
89 529 0
208 529 0
462 529 0
716 529 0
749 529 0
762 529 0
38 528 0
112 528 0
500 528 0
0 527 0
49 527 0
55 527 0
104 527 0
12 526 0
22 526 0
84 526 0
159 526 0
44 525 0
135 525 0
566 525 0
32 524 0
148 524 0
167 524 0
59 523 0
67 523 0
73 523 0
182 523 0
191 523 0
645 523 0
97 522 0
218 522 0
49 521 0
174 521 0
0 520 0
79 520 0
89 520 0
120 520 0
103 519 0
258 519 0
412 519 0
37 518 0
324 518 0
58 517 0
109 517 0
156 517 0
12 516 0
25 516 0
69 516 0
94 516 0
142 516 0
168 516 0
187 516 0
196 516 0
309 516 0
179 515 0
239 515 0
282 515 0
382 515 0
43 514 0
115 514 0
205 514 0
295 514 0
342 514 0
726 514 0
0 513 0
81 513 0
88 513 0
104 513 0
130 513 0
670 513 0
33 512 0
50 512 0
64 512 0
748 512 0
7 510 0
57 510 0
149 510 0
175 510 0
217 510 0
443 510 0
99 509 0
108 509 0
120 509 0
159 509 0
182 509 0
701 509 0
44 508 0
142 508 0
189 508 0
74 507 0
90 507 0
165 507 0
0 506 0
20 506 0
273 506 0
534 506 0
762 506 0
104 505 0
178 505 0
34 504 0
60 504 0
208 504 0
51 503 0
84 503 0
113 503 0
119 503 0
127 503 0
149 503 0
170 503 0
184 503 0
198 503 0
41 502 0
95 502 0
137 502 0
156 502 0
162 502 0
262 502 0
322 502 0
68 501 0
230 501 0
7 500 0
101 500 0
143 500 0
177 500 0
190 500 0
295 500 0
28 499 0
108 499 0
61 498 0
74 498 0
166 498 0
361 498 0
16 497 0
89 497 0
96 497 0
122 497 0
150 497 0
213 497 0
246 497 0
590 497 0
623 497 0
46 496 0
81 496 0
117 496 0
127 496 0
162 496 0
170 496 0
182 496 0
734 496 0
0 495 0
52 495 0
102 495 0
193 495 0
283 495 0
35 494 0
106 494 0
112 494 0
132 494 0
138 494 0
157 494 0
222 494 0
307 494 0
495 494 0
69 493 0
165 493 0
176 493 0
187 493 0
199 493 0
62 492 0
122 492 0
180 492 0
420 492 0
454 492 0
8 491 0
26 491 0
75 491 0
86 491 0
91 491 0
96 491 0
109 491 0
116 491 0
153 491 0
170 491 0
275 491 0
146 490 0
292 490 0
53 489 0
103 489 0
112 489 0
166 489 0
176 489 0
192 489 0
326 489 0
42 488 0
124 488 0
130 488 0
162 488 0
234 488 0
93 487 0
97 487 0
135 487 0
169 487 0
182 487 0
214 487 0
343 487 0
471 487 0
762 487 0
15 486 0
101 486 0
116 486 0
120 486 0
158 486 0
173 486 0
198 486 0
205 486 0
263 486 0
49 485 0
73 485 0
79 485 0
108 485 0
112 485 0
142 485 0
154 485 0
177 485 0
284 485 0
30 484 0
59 484 0
88 484 0
104 484 0
126 484 0
166 484 0
187 484 0
437 484 0
0 483 0
67 483 0
99 483 0
132 483 0
138 483 0
149 483 0
247 483 0
312 483 0
704 483 0
94 482 0
114 482 0
118 482 0
122 482 0
157 482 0
161 482 0
170 482 0
296 482 0
38 481 0
54 481 0
102 481 0
107 481 0
272 481 0
45 480 0
84 480 0
142 480 0
174 480 0
179 480 0
394 480 0
62 479 0
90 479 0
151 479 0
321 479 0
332 479 0
10 478 0
95 478 0
99 478 0
105 478 0
109 478 0
113 478 0
118 478 0
127 478 0
137 478 0
147 478 0
155 478 0
159 478 0
166 478 0
184 478 0
196 478 0
214 478 0
236 478 0
263 478 0
370 478 0
557 478 0
50 477 0
73 477 0
80 477 0
123 477 0
132 477 0
170 477 0
227 477 0
411 477 0
0 476 0
206 476 0
305 476 0
33 475 0
55 475 0
150 475 0
174 475 0
190 475 0
278 475 0
285 475 0
292 475 0
67 474 0
85 474 0
93 474 0
103 474 0
109 474 0
145 474 0
156 474 0
162 474 0
166 474 0
181 474 0
345 474 0
24 473 0
97 473 0
113 473 0
117 473 0
124 473 0
250 473 0
46 472 0
137 472 0
312 472 0
509 472 0
7 471 0
72 471 0
80 471 0
89 471 0
106 471 0
153 471 0
159 471 0
170 471 0
186 471 0
220 471 0
463 471 0
39 470 0
131 470 0
148 470 0
166 470 0
274 470 0
0 469 0
15 469 0
63 469 0
94 469 0
119 469 0
175 469 0
280 469 0
301 469 0
321 469 0
56 468 0
99 468 0
110 468 0
180 468 0
236 468 0
244 468 0
259 468 0
334 468 0
663 468 0
84 467 0
124 467 0
135 467 0
268 467 0
426 467 0
444 467 0
68 466 0
75 466 0
106 466 0
144 466 0
152 466 0
162 466 0
200 466 0
213 466 0
89 465 0
114 465 0
158 465 0
170 465 0
192 465 0
252 465 0
285 465 0
291 465 0
744 465 0
130 464 0
412 464 0
9 463 0
27 463 0
97 463 0
139 463 0
166 463 0
277 463 0
385 463 0
400 463 0
0 462 0
39 462 0
47 462 0
102 462 0
149 462 0
265 462 0
310 462 0
355 462 0
477 462 0
18 461 0
64 461 0
108 461 0
123 461 0
175 461 0
184 461 0
272 461 0
714 461 0
156 460 0
162 460 0
170 460 0
241 460 0
288 460 0
302 460 0
318 460 0
58 459 0
84 459 0
230 459 0
283 459 0
295 459 0
622 459 0
255 458 0
276 458 0
327 458 0
52 457 0
74 457 0
90 457 0
114 457 0
151 457 0
219 457 0
247 457 0
120 456 0
131 456 0
138 456 0
145 456 0
164 456 0
177 456 0
270 456 0
373 456 0
456 456 0
762 456 0
45 455 0
106 455 0
171 455 0
187 455 0
201 455 0
210 455 0
261 455 0
308 455 0
437 455 0
67 454 0
155 454 0
194 454 0
266 454 0
278 454 0
282 454 0
289 454 0
0 453 0
14 453 0
25 453 0
59 453 0
252 453 0
295 453 0
394 453 0
411 453 0
426 453 0
531 453 0
34 452 0
149 452 0
167 452 0
240 452 0
86 451 0
98 451 0
178 451 0
229 451 0
273 451 0
285 451 0
301 451 0
505 451 0
53 450 0
133 450 0
261 450 0
269 450 0
345 450 0
161 449 0
278 449 0
289 449 0
315 449 0
172 448 0
186 448 0
205 448 0
250 448 0
256 448 0
265 448 0
330 448 0
384 448 0
446 448 0
69 447 0
78 447 0
107 447 0
114 447 0
126 447 0
151 447 0
167 447 0
198 447 0
220 447 0
245 447 0
275 447 0
418 447 0
487 447 0
41 446 0
60 446 0
143 446 0
157 446 0
178 446 0
271 446 0
284 446 0
306 446 0
472 446 0
137 445 0
231 445 0
237 445 0
260 445 0
294 445 0
434 445 0
267 444 0
288 444 0
363 444 0
402 444 0
458 444 0
0 443 0
9 443 0
54 443 0
185 443 0
193 443 0
215 443 0
256 443 0
274 443 0
280 443 0
149 442 0
160 442 0
165 442 0
176 442 0
208 442 0
264 442 0
565 442 0
94 441 0
171 441 0
181 441 0
198 441 0
242 441 0
250 441 0
299 441 0
20 440 0
103 440 0
121 440 0
130 440 0
228 440 0
259 440 0
267 440 0
271 440 0
286 440 0
322 440 0
392 440 0
30 439 0
78 439 0
86 439 0
137 439 0
156 439 0
187 439 0
222 439 0
275 439 0
280 439 0
421 439 0
111 438 0
174 438 0
246 438 0
255 438 0
291 438 0
412 438 0
143 437 0
161 437 0
178 437 0
182 437 0
263 437 0
381 437 0
53 436 0
62 436 0
71 436 0
152 436 0
166 436 0
193 436 0
201 436 0
209 436 0
215 436 0
236 436 0
242 436 0
252 436 0
270 436 0
439 436 0
0 435 0
10 435 0
278 435 0
171 434 0
229 434 0
249 434 0
256 434 0
260 434 0
266 434 0
274 434 0
302 434 0
430 434 0
42 433 0
125 433 0
133 433 0
156 433 0
186 433 0
245 433 0
348 433 0
398 433 0
502 433 0
81 432 0
138 432 0
144 432 0
149 432 0
161 432 0
179 432 0
191 432 0
205 432 0
263 432 0
284 432 0
448 432 0
486 432 0
18 431 0
89 431 0
174 431 0
218 431 0
225 431 0
241 431 0
252 431 0
271 431 0
311 431 0
362 431 0
98 430 0
109 430 0
116 430 0
165 430 0
169 430 0
198 430 0
213 430 0
260 430 0
335 430 0
[...]
CELL_DATA 3820
COLOR_SCALARS lut 1
0.0292129
0.036485
0.0441254
0.0531312
0.0535102
0.0477099
0.0412322
0.0366048
0.0353645
0.0371848
0.0442055
0.052909
0.0631013
0.0854256
0.108227
0.123985
0.144016
0.165378
0.192112
0.220491
0.235797
0.238506
0.237867
0.238278
0.241191
0.251439
0.264588
0.291755
0.307638
0.309789
0.308542
0.308721
0.311765
0.326217
0.348318
0.378541
0.382608
0.379279
0.379621
0.390049
0.412262
0.451226
0.483095
0.461788
0.410759
0.352522
0.299785
0.252599
0.205413
0.166555
0.136022
0.105489
0.0833187
0.0587387
0.0409133
0.0268455
0.0775296
0.0263526
0.0378827
0.0608635
0.0504004
0.0394948
0.0524815
0.0422017
0.061829
0.0414235
0.0302638
0.0659422
0.0465163
0.0897479
0.0335944
0.0487958
0.064901
0.0399631
0.0532078
0.0824277
0.150857
0.109648
0.0426877
0.118335
0.0417694
0.0683436
0.0694593
0.303565
0.061588
0.0763481
0.0551699
0.0440943
0.274692
0.458435
0.225305
0.0788187
0.0424631
0.0446057
0.109845
0.269624
0.16488
0.204609
0.435433
0.0457717
0.0763371
0.0494433
0.0391329
0.0518092
0.186518
0.146761
0.0617043
0.0553205
0.0691011
0.0384336
0.0752706
0.0956669
0.156196
0.280412
0.34202
0.281218
0.257754
0.429493
0.0849471
0.0848244
0.0900927
0.404344
0.433086
0.220215
0.0587387
0.0595965
0.0786062
0.05993
0.0460712
0.0354989
0.0396851
0.0631918
0.415548
0.126088
0.0356624
0.0472459
0.436865
0.0771248
0.0799891
0.129616
0.375347
0.374858
0.529673
0.339918
0.078491
0.451761
0.101509
0.0958307
0.0510084
0.310816
0.534605
0.281001
0.0955395
0.0345209
0.0341836
0.212828
0.335124
0.399926
0.200932
0.168351
0.122384
0.0739013
0.0408869
0.320493
0.082822
0.045083
0.0671302
0.275825
0.0353173
0.178053
0.467782
0.502523
0.101199
0.0833187
0.0347371
0.0327283
0.131073
0.092453
0.105589
0.0591339
0.0963352
0.260104
0.337205
0.113611
0.0426912
0.0359534
0.41244
0.0874467
0.0335152
0.0466994
0.0682083
0.342966
0.546514
0.429863
0.257179
0.164234
0.035404
0.06935
0.523697
0.124033
0.110488
0.0937778
0.0530615
0.0350804
0.0385614
0.124064
0.0499868
0.0906309
0.407356
0.108264
0.0375657
0.0638231
0.338797
0.471253
0.523283
0.229087
0.094884
0.0453221
0.0369253
0.0404921
0.124323
0.16464
0.2478
0.383133
0.0783224
0.627079
0.0409524
0.0554104
0.0798828
0.526299
0.416325
0.335497
0.156515
0.0619689
0.0440595
0.461617
0.127695
0.0490018
0.477411
0.533462
0.202848
0.0975691
0.0408723
0.0418049
0.117192
0.105991
0.0590629
0.109068
0.389738
0.385438
0.12671
0.0447707
0.0466168
0.153434
0.431725
0.479716
0.0805586
0.0577603
0.0440396
0.0458282
0.485871
0.542095
0.106937
0.0479693
0.106226
0.0598664
0.0722236
0.28284
0.174175
0.126768
0.0522186
0.178677
0.647009
0.3431
0.0481889
0.050097
0.0891427
0.269567
0.0853034
0.05395
0.0497452
0.123153
0.0997908
0.129721
0.0662517
0.658487
0.16378
0.491951
0.591271
0.231625
0.115411
0.0576249
0.0674568
0.414993
0.053722
0.0976651
0.371323
0.115759
0.0545468
0.0790311
0.137675
0.433207
0.578209
0.0662781
0.0553618
0.0580282
0.101316
0.134293
0.527337
0.543156
0.211426
0.65157
0.0904501
0.0591458
0.0644265
0.0728132
0.0897613
0.0603479
0.06439
0.105624
0.156926
0.626063
0.120249
0.253778
0.577331
0.332255
0.197087
0.135056
0.0738255
0.188109
0.239153
0.262755
0.253964
0.0995638
0.0646931
0.0692136
0.08881
0.270523
0.102822
0.0679147
0.0707052
0.0731415
0.535029
0.563493
0.131511
0.115913
0.123961
0.371864
0.068843
0.0758748
0.15037
0.0987468
0.0773517
0.0784027
0.0871194
0.23021
0.494205
0.103512
0.138824
0.186605
0.707428
0.0764939
0.0746085
0.184631
0.44691
0.206223
0.123061
0.118232
0.117515
0.0842866
0.0852896
0.19108
0.480114
0.339902
0.0845181
0.0879768
0.0966369
0.230252
0.676687
0.405371
0.277566
0.238721
0.0968073
0.149424
0.707446
0.104612
0.0773145
0.0807307
0.12656
0.133784
0.143987
0.0907269
0.165379
0.0850345
0.18947
0.793693
0.12054
0.178464
0.144217
0.0904094
0.0984284
0.0974608
0.144806
0.158286
0.667294
0.102714
0.233517
0.0833773
0.129332
0.106215
0.099032
0.0943674
0.147549
0.10597
0.343622
0.689519
0.111479
0.380376
0.0948947
0.111157
0.137036
0.13697
0.147558
0.110958
0.0918442
0.157348
0.112801
0.125947
0.143311
0.322821
0.110674
0.292326
0.268037
0.680028
0.0994272
0.112629
0.161431
0.281627
0.438619
0.407817
0.107613
0.106754
0.0952497
0.0902519
0.141939
0.627245
0.130684
0.0915549
0.110107
0.328405
0.124887
0.09853
0.12574
0.0892249
0.192976
0.524127
0.0790728
0.0818439
0.10405
0.102089
0.09377
0.519789
0.103036
0.129049
0.103769
0.120887
0.0895241
0.084473
0.109121
0.155808
0.230305
0.819317
0.302561
0.068616
0.0751491
0.134796
0.105826
0.151524
0.0963745
0.101307
0.0685761
0.0793778
0.098254
0.101209
0.0659577
0.0794061
0.1165
0.114646
0.0730224
0.110483
0.0839932
0.0726013
0.232626
0.28041
0.118442
0.226376
0.127468
0.0600476
0.100463
0.0596521
0.0875225
0.222518
0.153305
0.0537954
0.104667
0.115464
0.0547078
0.405428
0.152299
0.0788682
0.0623104
0.0662015
0.0795037
0.162971
0.238798
0.91402
0.830285
0.101827
0.0985787
0.0534998
0.0752826
0.0547866
0.0467987
0.0603632
0.426461
0.11168
0.0933346
0.0490904
0.0907595
0.182665
0.133463
0.0437464
0.0434828
0.0804882
0.0851364
0.0578828
0.19353
0.22556
0.602349
0.108176
0.0439951
0.0449394
0.0707558
0.110268
0.0988698
0.0534108
0.0514066
0.34169
0.416587
0.132262
0.158145
0.100157
0.0741785
0.0607951
0.0500066
0.0374713
0.0411732
0.0574613
0.0383738
0.170933
0.0663782
0.177401
0.0879012
0.0372492
0.0350818
0.0373971
0.0421903
0.0860777
0.2429
0.109126
0.0507759
0.0631933
0.0395487
0.214417
0.0482454
0.0410196
0.0672502
0.0356173
0.055997
0.162602
0.286218
0.421193
0.355298
0.152563
0.0348668
0.0351314
0.0407426
0.0419424
0.0382042
0.107024
0.131102
0.171773
0.0900542
0.0917986
0.0806314
0.0307206
0.0315109
0.0610847
0.0459934
0.0450637
0.146896
0.149002
0.0853361
0.0559365
0.0311162
0.0502089
0.0354509
0.0725802
0.344397
0.114719
0.0917701
0.0341954
0.0585907
0.06087
0.0506398
0.190105
0.194051
0.5802
0.0406877
0.0321382
0.0360509
0.0418948
0.0409697
0.0376474
0.0375903
0.156867
0.121821
0.0822272
0.031453
0.0300804
0.138916
0.0990303
0.0641053
0.0562794
0.0447055
0.0551294
0.323318
0.0846133
0.0490443
0.0473764
0.20149
0.233104
0.141514
0.0399317
0.035187
0.032256
0.0323931
0.0338515
0.0377989
0.0500189
0.0583432
0.0519066
0.043445
0.0400306
0.0387494
0.0715262
0.106972
0.162264
0.188168
0.143169
0.3592
0.897129
0.0870668
0.0867335
0.0749051
0.0449713
0.0565346
0.0430193
0.187011
0.271761
0.116622
0.1403
0.156151
0.14234
0.080968
0.0505462
0.0524719
0.0938901
0.11143
0.112106
0.122791
0.0882891
0.0672086
0.0492253
0.0392509
0.0390571
0.05689
0.0447003
0.0415353
0.0429258
0.0706354
0.268952
0.166995
0.0455911
0.0426372
0.0450631
0.0522881
0.149716
0.0994744
0.0646094
0.159933
0.474439
0.135156
0.0916408
0.0836422
0.0645057
0.0462438
0.0504863
0.044842
0.0516479
0.0897014
0.174123
0.343045
0.124564
0.0664191
0.0584675
0.0476418
0.0975162
0.118763
0.158306
0.0861908
0.0604275
0.0570163
0.0644696
0.089761
0.124209
0.178933
0.0835833
0.0577519
0.055651
0.0781739
0.157307
0.143339
0.115067
0.222097
0.782765
0.0864639
0.0674587
0.0754546
0.0955534
0.247449
0.297955
0.0944349
0.0987091
0.0618093
0.0707535
0.0577573
0.049262
0.135937
0.164016
0.0826422
0.0665706
0.0514461
0.0586634
0.114327
0.117715
0.0784216
0.087858
0.473836
0.081477
0.225504
0.143622
0.171156
0.0766851
0.0832722
0.0545978
0.0710798
0.29878
0.244313
0.120938
0.134535
0.107695
0.0767729
0.0693276
0.0833392
0.134533
0.295051
0.339155
0.168931
0.0935965
0.0793538
0.084769
0.0711769
0.0934858
0.0694139
0.602007
0.0603747
0.055613
0.0619717
0.121046
0.0681819
0.106873
0.159414
0.0917618
0.111437
0.137762
0.0590745
0.083168
0.965933
0.0877276
0.056325
0.191179
0.102417
0.114732
0.109502
0.0934578
0.0743996
0.1471
0.0992441
0.0976316
0.102333
0.0992155
0.0882226
0.06011
0.0748698
0.0564161
0.312197
0.277898
0.44133
0.125744
0.10135
0.0648206
0.0966715
0.131755
0.145219
0.0670965
0.126045
0.23377
0.106084
0.0719858
0.112548
0.0560825
0.0452653
0.0467251
0.058791
0.124051
0.162634
0.183051
0.0994716
0.0764584
0.0771476
0.226831
0.190215
0.198384
0.501592
0.168193
0.0860426
0.0629507
0.0952627
0.135566
0.120983
0.070987
0.112444
0.0407687
0.0465789
0.102324
0.399486
0.112034
0.108651
0.0522621
0.0419927
0.258918
0.0684797
0.036817
0.0560511
0.158064
0.0618321
0.0776653
0.120936
0.0641795
0.0544215
0.0420288
0.20948
0.239557
0.230729
0.117351
0.137552
0.126303
0.118718
0.109778
0.0843333
0.062741
0.102224
0.114011
0.0697151
0.0341521
0.167875
0.33027
0.15588
0.108491
0.0954975
0.0746449
0.0612447
0.0338672
0.043231
0.132294
0.281308
0.100686
0.0884487
0.0775724
0.0416685
0.0793931
0.189851
0.0337054
0.0563441
0.280549
0.176753
0.240602
0.12769
0.151446
0.1207
0.0612334
0.0768087
0.107275
0.0424577
0.0320843
0.037482
0.0818094
0.0680236
0.0617192
0.0530314
0.106098
0.0334914
0.623374
0.150796
0.0542967
0.05223
0.0837143
0.0572978
0.0458742
0.112295
0.18572
0.139484
0.10455
0.0943804
0.0776049
0.0349116
0.0312514
0.0315872
0.0558793
0.199583
0.187394
0.194947
0.140943
0.154203
0.0861896
0.0685849
0.0542424
0.0845565
0.0348754
0.0420564
0.14402
0.12243
0.0480236
0.0448704
0.035881
0.0803816
0.140678
0.0758488
0.0598601
0.0447045
0.0452434
0.0316567
0.206313
0.128553
0.112702
0.121791
0.0658659
0.0530987
0.0604582
0.0797502
0.089669
0.0856043
0.053695
0.0459192
0.0362187
0.0339807
0.171768
0.130718
0.157794
0.04557
0.0455409
0.0589206
0.0366788
0.0331734
0.0325107
0.0338065
0.0410688
0.14725
0.143491
0.165194
0.0786787
0.070391
0.0556843
0.0438069
0.0387365
0.259431
0.149965
0.366251
0.137335
0.0639033
0.0604482
0.0574191
0.0502399
0.0391571
0.0515536
0.0788021
0.0345357
0.0681465
0.181996
0.305353
0.184478
0.140158
0.0401353
0.0677575
0.0575222
0.0399143
0.034293
0.0429577
0.192826
0.234628
0.127105
0.107883
0.0885539
0.0441772
0.0419479
0.0654093
0.0719842
0.0354484
0.24922
0.200636
0.221249
0.201776
0.111549
0.0610324
0.047139
0.0455669
0.0399566
0.0426528
0.0364607
0.131284
0.22959
0.163757
0.115538
0.110443
0.105087
0.0538981
0.0476169
0.0376528
0.0450509
0.0360959
0.041144
0.062882
0.0992003
0.132884
0.0483819
0.0467087
0.0405559
0.0446608
0.0358931
0.0555471
0.0792063
0.133809
0.499594
0.0584016
0.037536
0.0371187
0.0676616
0.0687378
0.0568807
0.0381865
0.0371644
0.116556
0.108328
0.256609
0.911557
0.124206
0.0821256
0.0395725
0.0387372
0.0400116
0.0525156
0.0440996
0.0526789
0.128836
0.135162
0.176004
0.11118
0.117171
0.0629586
0.0440852
0.0366685
0.0599955
0.0478347
0.0401608
0.0372943
0.0941507
0.786237
0.172403
0.105757
0.0382159
0.0369466
0.0356104
0.0358058
0.0601762
0.0393288
0.160448
0.607826
0.0975183
0.0875387
0.0374492
0.0366879
0.0377196
0.0394367
0.0485104
0.042543
0.108793
0.189146
0.0396452
0.0332482
0.0439984
0.0630514
0.0383285
0.050707
0.0766891
0.158014
0.657102
0.094043
0.0452762
0.032321
0.0339127
0.0360586
0.0517366
0.0414453
0.0472457
0.0616653
0.0699232
0.210395
0.0900799
0.0835099
0.396135
0.06753
0.0540648
0.0319286
0.0316096
0.0530809
0.0602411
0.166068
0.241824
0.238841
0.0315835
0.0322198
0.0375578
0.0392839
0.0414568
0.0562811
0.0454026
0.0420199
0.0388565
0.104155
0.076663
0.0973249
0.129919
0.187239
0.133827
0.10484
0.0321251
0.031045
0.0355946
0.0450013
0.0395603
0.0417202
0.106525
0.120234
0.320569
0.0908722
0.0999396
0.0436459
0.0360455
0.0301533
0.0304011
0.0594198
0.0511708
0.208066
0.536428
0.139076
0.203578
0.165443
0.102295
0.0911052
0.0345982
0.0520166
0.0408199
0.0482448
0.0935496
0.0620453
0.0507167
0.0448063
0.0633223
0.0849108
0.0787355
0.266184
0.163981
0.0322706
0.0333466
0.0347543
0.037566
0.0402082
0.04315
0.0454744
0.0499939
0.057527
0.0612155
0.0572429
0.143039
0.0671812
0.0690751
0.105962
0.094124
0.0742149
0.0498707
0.0388116
0.0328734
0.0317609
0.031762
0.0323077
0.0399525
0.081106
0.0899707
0.0589313
0.159615
0.226374
0.20413
0.0838781
0.04016
0.0648615
0.114023
0.170779
0.0969498
0.0369486
0.0523712
0.0454834
0.0390811
0.047802
0.0562664
0.216318
0.11528
0.128175
0.0927841
0.091895
0.0677677
0.0472575
0.0365238
0.0376693
0.042073
0.0475185
0.409958
0.0847762
0.0432786
0.0470205
0.0541382
0.0672409
0.0695844
0.0683943
0.0629474
0.0546815
0.0442723
0.133737
0.0871006
0.0491149
0.0622363
0.0826644
0.129261
0.142783
0.0404909
0.0450555
0.0630885
0.0411663
0.0862566
0.104278
0.2246
0.0660046
0.0565547
0.0487124
0.0504031
0.0974596
0.0427182
0.0595314
0.118708
0.461287
0.195409
0.0872342
0.068873
0.0471293
0.0466021
0.0478032
0.0432675
0.141026
0.0866751
0.0961138
0.0619452
0.0746544
0.0498281
0.0534351
0.0412261
0.194585
0.181996
0.11827
0.0684087
0.0723453
0.0818304
0.0833455
0.182375
0.164534
0.0860572
0.0421906
0.098195
0.0593571
0.0630677
0.0654416
0.0832081
0.0698354
0.228371
0.183507
0.131971
0.0973745
0.0691427
0.0391385
0.0515932
0.104132
0.29643
0.702042
0.100916
0.0699229
0.0625362
0.0580459
0.0595977
0.0491219
0.0453839
0.051776
0.0421653
0.0846404
0.091269
0.0620712
0.0680609
0.120484
0.137286
0.211103
0.0360452
0.153028
0.153846
0.0930993
0.103948
0.071507
0.245005
0.312866
0.0904422
0.0688129
0.0755114
0.0928608
0.0882294
0.0520375
0.0337767
0.0395583
0.0490059
0.0715135
0.0864473
0.147525
0.148357
0.10172
0.0759464
0.0952952
0.103506
0.0621106
0.083302
0.052902
0.0422475
0.0368361
0.033361
0.116708
0.112265
0.0909729
0.082028
0.0560344
0.191656
0.0974534
0.0737004
0.0356255
0.0880546
0.0633592
0.119113
0.128192
0.0578361
0.0314276
0.0639943
0.100151
0.531132
0.222924
0.0925882
0.0965393
0.0835314
0.0603217
0.165816
0.120417
0.0317594
0.215825
0.271753
0.127171
0.0945008
0.119467
0.117297
0.0754787
0.0764412
0.101585
0.0964927
0.146265
0.0404036
0.031912
0.0342784
0.168504
0.121247
0.0955313
0.0521959
0.252959
0.326287
0.220297
0.105287
0.116927
0.108748
0.0721821
0.186423
0.15644
0.0592497
0.0443282
0.0323375
0.032833
0.0433886
0.073117
0.17065
0.174396
0.106342
0.0880954
0.107163
0.123365
0.128779
1
0.824235
0.121851
0.11068
0.0846085
0.117196
0.0872409
0.0314597
0.51749
0.205178
0.113744
0.124428
0.12367
0.0704869
0.0597681
0.0305505
0.104065
0.0981362
0.129393
0.143317
0.136061
0.139929
0.080948
0.100008
0.0400941
0.0327929
0.036093
0.145347
0.0839063
0.161954
0.0442166
0.0324982
0.0647912
0.270387
0.345011
0.12903
0.13073
0.140549
0.11442
0.120503
0.132373
0.148726
0.0334609
0.0480714
0.606179
0.156049
0.106563
0.150842
0.0997488
0.104683
0.031103
0.0323452
0.116574
0.257026
0.1717
0.142072
0.0990195
0.101771
0.0534379
0.0350204
0.039631
0.241426
0.386666
0.0956835
0.104025
0.115665
0.0713388
0.0431184
0.226297
0.110181
0.142157
0.156573
0.0957554
0.103727
0.149083
0.129262
0.0367942
0.0317131
0.0331777
0.0741198
0.127769
0.157054
0.0988833
0.0521867
0.176898
0.24859
0.0781349
0.0598833
0.1841
0.170204
0.132764
0.0993626
0.0549972
0.0366725
0.0326417
0.0400597
0.0496901
0.19932
0.22266
0.131198
0.174464
0.160763
0.111963
0.0858317
0.0339541
0.104359
0.223309
0.156873
0.121402
0.109163
0.106181
0.104119
0.0933838
0.134574
0.0375245
0.0332837
0.704374
0.180011
0.119059
0.178586
0.0875124
0.0865768
0.0960491
0.0537121
0.131245
0.0343425
0.0357306
0.0418537
0.0478867
0.0706821
0.521289
0.179749
0.183867
0.0900304
0.125165
0.0879893
0.0438463
0.0392595
0.0619178
0.163226
0.196306
0.159273
0.101963
0.0787448
0.0988181
0.0673318
0.0355397
0.095805
0.245483
0.194998
0.246372
0.0345281
0.0362648
0.043345
0.173048
0.114024
0.113056
0.0873932
0.051653
0.0445227
0.204244
0.143237
0.207962
0.203973
0.116428
0.0810875
0.0706046
0.0757583
0.0962957
0.0391322
0.0363975
0.0348303
0.0597149
0.133277
0.188125
0.128534
0.068594
0.112456
0.0849502
0.18026
0.298991
0.0897968
0.0903442
0.0648528
0.0554514
0.037338
0.0483634
0.0569688
0.155612
0.192697
0.201872
0.234884
0.194381
0.108089
0.0699092
0.0408079
0.0421502
0.37667
0.163695
0.198994
0.160789
0.112505
0.0993771
0.0361552
0.0361749
0.0791096
0.109668
0.189295
0.27194
0.137366
0.0975231
0.0584569
0.0654082
0.0425262
0.0372048
0.038693
0.158349
0.167938
0.213166
0.0798034
0.0616069
0.0619416
0.0509962
0.0522447
0.0612236
0.143715
0.229626
0.110553
0.0548168
0.0951869
0.0887737
0.0762316
0.102112
0.147111
0.0646925
0.0775914
0.0753013
0.0657566
0.042389
0.0375622
0.0372871
0.040121
0.0488809
0.0529553
0.0501552
0.0517757
0.21533
0.246729
0.223052
0.0938744
0.068464
0.0593336
0.0474038
0.193273
0.176697
0.191501
0.113104
0.0981349
0.0478299
0.0442165
0.0381862
0.0408322
0.148272
0.172662
0.120775
0.0930698
0.0747228
0.0444614
0.0392275
0.0730773
0.0970823
0.123083
0.118382
0.204936
0.238848
0.131741
0.0787999
0.0565159
0.067249
0.0763737
0.0564905
0.312129
0.259305
0.182278
0.0980194
0.0932627
0.0496032
0.0433092
0.0459978
0.0638224
0.042191
0.190767
0.133093
0.582491
0.216758
0.272083
0.0810072
0.057375
0.0734353
0.0459999
0.0401724
0.0394415
0.0477412
0.0549371
0.0654641
0.119988
0.168173
0.209999
0.039139
0.092691
0.151881
0.192446
0.110059
0.142838
0.215562
0.212028
0.147031
0.0791162
0.06167
0.0373467
0.0528034
0.041315
0.0427393
0.636332
0.516709
0.232824
0.158783
0.0958478
0.0676522
0.0640466
0.039064
0.0608552
0.0609499
0.0457501
0.0480663
0.14927
0.0524062
0.046285
0.0374043
0.0403796
0.11446
0.0951838
0.422178
0.908826
0.785358
0.206235
0.0341867
0.0429484
0.0612749
0.0482285
0.0830038
0.237019
0.160744
0.0925516
0.0731921
0.0684956
0.0641338
0.0617525
0.0378678
0.0412598
0.0435408
0.0495465
0.0621527
0.108326
0.104006
0.199179
0.205481
0.0561026
0.0476559
0.0335936
0.0594241
0.0894582
0.18708
0.0728901
0.0414967
0.0382691
0.0342461
0.0430025
0.0770733
0.11212
0.116177
0.111004
0.0480125
0.0314308
0.0397429
0.0460971
0.0534333
0.0488315
0.0418329
0.148339
0.0807161
0.142981
0.18116
0.169488
0.177652
0.0539215
0.0418716
0.0609547
0.170997
0.168885
0.299665
0.152553
0.0853235
0.0579777
0.047787
0.0374721
0.0315565
0.0411823
0.0457273
0.185048
0.284073
0.279247
0.0682737
0.0463108
0.0426135
0.0339693
0.0330899
0.0321069
0.0318868
0.053184
0.0500868
0.0427226
0.0549729
0.135202
0.189364
0.0802395
0.258815
0.190927
0.180451
0.0545638
0.0492034
0.0377902
0.0310743
0.0366381
0.044386
0.116977
0.0673663
0.0910544
0.0557816
0.0442141
0.0324277
0.045377
0.0440802
0.091933
0.104108
0.0906783
0.074627
0.115038
0.347035
0.191424
0.0370195
0.0331003
0.0322971
0.0313266
0.0313802
0.0347374
0.0524024
0.080114
0.120249
0.159673
0.166369
0.169272
0.0600525
0.035845
0.0310521
0.0314926
0.0332316
0.0496689
0.0502313
0.0406476
0.0595337
0.126266
0.0835656
0.0354873
0.0322541
0.0316701
0.0457724
0.0427871
0.0506458
0.0584168
0.0572322
0.196874
0.178609
0.153244
0.0461254
0.0398628
0.037692
0.035152
0.0318104
0.0305638
0.031482
0.0320269
0.0420222
0.0473245
0.0419971
0.0459972
0.136119
0.0613363
0.072457
0.226303
0.217136
0.0303446
0.0303805
0.0354801
0.0373541
0.184175
0.0620786
0.1435
0.0545744
0.0302863
0.0301585
0.0301937
0.0315246
0.0353034
0.0553096
0.0562316
0.0779646
0.170086
0.0873388
0.070178
0.238224
0.189099
0.148346
0.0434656
0.0353332
0.0296947
0.0341621
0.0351866
0.0501066
0.0453289
0.0654239
0.107755
0.120166
0.0469168
0.108399
0.130981
0.0310787
0.0300204
0.0324377
0.0341764
0.0448447
0.0560425
0.0427362
0.0478574
0.132461
0.145578
0.144631
0.085198
0.0290884
0.0285449
0.0287227
0.0296383
0.0325727
0.04159
0.041526
0.0988185
0.0454898
0.054267
0.0858475
0.15132
0.109441
0.0618734
0.034115
0.0300248
0.031691
0.0326635
0.0459382
0.0617647
0.0532203
0.058142
0.146664
0.0459905
0.0661011
0.0307917
0.0283919
0.0314001
0.0549966
0.0659389
0.130619
0.108815
0.0608559
0.039911
0.0393636
0.123333
0.13727
0.0347517
0.0284963
0.0304803
0.0470586
0.0494158
0.0744051
0.105149
0.369083
0.318691
0.0424638
0.0290291
0.03035
0.0348506
0.041166
0.0436181
0.0465761
0.066209
0.0458145
0.0490103
0.0459287
0.0441479
0.812412
0.0695515
0.051025
0.0297652
0.0294478
0.0384065
0.0402162
0.0417765
0.0546906
0.0592634
0.0456329
0.121593
0.128861
0.155067
0.171169
0.0642077
0.269137
0.473763
0.597203
0.167658
0.138993
0.136284
0.0300881
0.0541501
0.0700685
0.0612337
0.0758485
0.0697715
0.0886929
0.189926
0.111614
0.119378
0.0338459
0.0317315
0.0379118
0.0794278
0.0671972
0.0338796
0.0369895
0.280055
0.108211
0.0442953
0.0381598
0.0354089
0.0373374
0.0434475
0.0972308
0.134225
0.153771
0.125179
0.0827159
0.0448848
0.0506773
0.197527
0.238333
0.11976
0.110932
0.11406
0.115833