# vtk DataFile Version 1.0
Unstructured Grid Example
ASCII

DATASET UNSTRUCTURED_GRID
POINTS 3820 float
181 280 0
132 256 0
325 179 0
229 334 0
297 356 0
0 506 0
92 424 0
352 348 0
730 558 0
604 284 0
446 182 0
376 170 0
726 15 0
704 5 0
173 305 0
105 294 0
239 308 0
257 324 0
288 317 0
229 417 0
268 394 0
195 335 0
146 416 0
145 423 0
32 415 0
80 477 0
88 484 0
91 491 0
62 611 0
81 577 0
158 465 0
324 518 0
198 441 0
166 436 0
192 425 0
159 423 0
382 294 0
407 352 0
412 464 0
347 588 0
361 498 0
616 353 0
732 530 0
739 605 0
457 343 0
480 338 0
459 329 0
545 150 0
589 69 0
569 111 0
542 125 0
506 135 0
394 134 0
714 4 0
611 1 0
683 66 0
720 18 0
720 65 0
736 28 0
65 208 0
35 17 0
80 286 0
71 301 0
81 309 0
116 313 0
100 314 0
122 301 0
133 294 0
110 254 0
170 151 0
227 288 0
201 259 0
265 220 0
273 191 0
288 215 0
263 309 0
277 300 0
256 310 0
226 315 0
196 299 0
222 295 0
244 355 0
230 329 0
287 349 0
296 367 0
301 353 0
283 373 0
283 405 0
299 383 0
261 394 0
256 370 0
233 405 0
200 363 0
183 396 0
175 357 0
222 341 0
195 320 0
126 337 0
91 332 0
169 370 0
71 385 0
115 398 0
120 395 0
9 443 0
20 440 0
27 463 0
53 450 0
64 461 0
81 513 0
107 481 0
90 507 0
73 523 0
56 468 0
42 488 0
46 561 0
33 557 0
35 583 0
14 595 0
8 604 0
67 575 0
49 597 0
90 585 0
55 567 0
51 563 0
71 536 0
114 482 0
142 480 0
166 484 0
166 498 0
149 503 0
195 532 0
269 611 0
168 544 0
175 510 0
307 494 0
170 477 0
178 437 0
180 468 0
241 431 0
170 471 0
166 463 0
130 440 0
142 416 0
132 417 0
164 413 0
180 413 0
183 410 0
296 429 0
339 310 0
350 306 0
372 346 0
395 310 0
389 308 0
377 380 0
392 369 0
363 359 0
357 368 0
338 359 0
316 354 0
307 420 0
308 383 0
334 468 0
333 540 0
323 569 0
345 450 0
397 592 0
398 433 0
335 430 0
403 414 0
392 385 0
556 556 0
623 497 0
601 559 0
460 611 0
599 611 0
757 591 0
727 598 0
732 588 0
754 560 0
742 541 0
663 468 0
476 414 0
540 427 0
442 400 0
426 467 0
408 389 0
423 375 0
467 324 0
464 339 0
468 311 0
485 303 0
489 339 0
517 320 0
523 235 0
510 241 0
518 206 0
645 193 0
521 185 0
478 243 0
458 226 0
394 248 0
432 270 0
469 284 0
400 295 0
389 250 0
383 277 0
344 254 0
329 273 0
321 290 0
332 243 0
328 246 0
317 217 0
338 213 0
341 229 0
350 243 0
533 148 0
546 155 0
520 149 0
519 174 0
448 164 0
468 1 0
377 1 0
381 24 0
479 141 0
527 119 0
541 117 0
596 87 0
703 45 0
621 29 0
705 88 0
602 112 0
568 150 0
759 38 0
708 64 0
748 38 0
758 22 0
749 6 0
745 1 0
25 1 0
20 8 0
40 8 0
58 11 0
70 1 0
13 21 0
27 56 0
11 28 0
9 12 0
0 39 0
0 29 0
0 63 0
13 88 0
40 160 0
0 166 0
0 309 0
102 255 0
59 265 0
80 275 0
102 242 0
71 148 0
76 101 0
122 289 0
112 286 0
111 297 0
117 297 0
118 307 0
137 290 0
124 294 0
143 285 0
125 279 0
127 275 0
135 269 0
139 250 0
146 262 0
133 262 0
115 265 0
108 262 0
123 82 0
111 200 0
128 249 0
136 243 0
138 24 0
142 62 0
169 70 0
202 1 0
151 166 0
177 178 0
209 217 0
257 178 0
232 206 0
254 187 0
235 166 0
252 85 0
211 32 0
265 25 0
274 155 0
282 175 0
299 124 0
308 175 0
307 220 0
309 182 0
300 220 0
282 226 0
281 209 0
260 206 0
256 283 0
260 243 0
284 289 0
295 288 0
289 280 0
276 307 0
304 292 0
275 289 0
251 299 0
235 300 0
228 309 0
221 303 0
219 313 0
211 311 0
217 280 0
212 268 0
227 249 0
149 279 0
153 229 0
172 239 0
159 291 0
164 298 0
150 306 0
231 325 0
236 316 0
235 327 0
233 331 0
234 342 0
248 334 0
256 339 0
255 332 0
251 330 0
252 321 0
239 321 0
269 315 0
292 329 0
292 324 0
296 328 0
305 318 0
285 336 0
289 332 0
308 331 0
269 334 0
265 333 0
260 333 0
277 357 0
293 350 0
294 360 0
304 359 0
306 354 0
284 397 0
291 374 0
297 373 0
282 386 0
268 378 0
264 400 0
253 381 0
251 390 0
252 364 0
258 362 0
260 354 0
259 349 0
251 374 0
240 346 0
230 374 0
234 398 0
236 408 0
243 406 0
221 404 0
216 408 0
211 408 0
148 405 0
155 407 0
189 385 0
165 386 0
137 397 0
195 392 0
216 393 0
229 401 0
211 328 0
205 370 0
219 328 0
208 326 0
223 326 0
185 346 0
201 341 0
201 321 0
192 350 0
148 375 0
154 383 0
109 373 0
119 375 0
115 350 0
108 342 0
111 331 0
83 342 0
92 314 0
81 351 0
0 370 0
61 381 0
0 382 0
95 385 0
67 391 0
83 382 0
120 387 0
128 391 0
135 386 0
77 404 0
115 405 0
133 407 0
66 399 0
62 406 0
48 399 0
0 415 0
9 413 0
25 453 0
9 463 0
15 469 0
74 457 0
39 462 0
59 453 0
54 443 0
67 416 0
59 417 0
102 411 0
97 415 0
108 412 0
113 419 0
118 412 0
114 457 0
119 424 0
108 422 0
102 462 0
84 425 0
94 469 0
99 478 0
105 478 0
106 471 0
119 469 0
109 474 0
116 491 0
118 482 0
122 492 0
108 509 0
103 489 0
99 509 0
57 510 0
96 497 0
81 496 0
62 479 0
38 481 0
10 478 0
0 469 0
30 484 0
28 499 0
37 518 0
33 512 0
16 534 0
9 537 0
35 535 0
49 521 0
49 527 0
27 577 0
46 565 0
13 559 0
4 561 0
0 573 0
0 556 0
3 597 0
23 601 0
19 605 0
19 611 0
13 611 0
45 598 0
43 607 0
45 592 0
51 588 0
46 579 0
45 588 0
57 592 0
54 581 0
53 593 0
53 600 0
57 611 0
98 604 0
72 609 0
71 597 0
62 593 0
62 576 0
65 570 0
79 558 0
115 542 0
88 545 0
72 554 0
61 541 0
59 569 0
55 533 0
55 527 0
61 535 0
79 520 0
89 520 0
103 519 0
156 474 0
124 467 0
166 470 0
170 465 0
181 474 0
166 489 0
174 480 0
176 489 0
138 483 0
130 488 0
126 484 0
142 516 0
127 503 0
135 525 0
145 535 0
153 611 0
170 503 0
189 508 0
165 507 0
182 496 0
157 494 0
176 493 0
198 503 0
191 523 0
206 554 0
199 587 0
210 572 0
255 611 0
283 611 0
245 602 0
277 591 0
231 564 0
218 522 0
262 502 0
292 490 0
284 485 0
214 487 0
198 486 0
192 489 0
274 470 0
250 473 0
247 483 0
278 475 0
292 475 0
305 476 0
278 449 0
289 449 0
288 444 0
280 439 0
278 435 0
265 448 0
252 436 0
266 454 0
270 456 0
277 463 0
230 459 0
167 447 0
182 437 0
162 460 0
156 460 0
130 464 0
133 433 0
125 433 0
156 433 0
171 434 0
209 436 0
186 433 0
158 429 0
169 420 0
154 429 0
138 432 0
129 429 0
144 419 0
123 420 0
151 410 0
159 409 0
184 417 0
166 417 0
194 413 0
234 412 0
207 416 0
211 418 0
185 421 0
243 424 0
270 420 0
256 428 0
271 431 0
268 414 0
262 412 0
278 411 0
357 274 0
349 272 0
344 275 0
311 280 0
330 295 0
377 291 0
375 302 0
378 282 0
360 281 0
378 275 0
367 273 0
391 269 0
386 273 0
401 275 0
403 278 0
409 273 0
408 286 0
412 290 0
406 281 0
393 282 0
388 290 0
380 299 0
366 308 0
359 307 0
372 307 0
378 317 0
384 304 0
375 324 0
381 331 0
356 326 0
352 322 0
347 330 0
346 318 0
345 325 0
343 330 0
340 324 0
337 320 0
342 316 0
322 319 0
322 306 0
331 302 0
320 332 0
315 332 0
329 334 0
334 335 0
314 343 0
339 344 0
346 346 0
369 337 0
327 360 0
354 359 0
348 350 0
321 352 0
313 349 0
311 354 0
343 371 0
337 370 0
333 407 0
342 514 0
311 549 0
361 411 0
346 568 0
370 386 0
356 385 0
369 363 0
362 380 0
378 372 0
385 385 0
370 395 0
372 408 0
370 478 0
400 568 0
400 611 0
409 429 0
386 394 0
399 386 0
390 379 0
389 372 0
390 365 0
385 369 0
384 364 0
380 365 0
373 363 0
382 352 0
377 344 0
382 359 0
394 351 0
398 360 0
401 355 0
417 370 0
437 378 0
483 355 0
495 361 0
501 380 0
452 404 0
465 382 0
447 412 0
447 423 0
419 407 0
427 399 0
444 467 0
437 484 0
420 492 0
454 492 0
417 611 0
458 585 0
504 599 0
489 611 0
495 494 0
472 446 0
458 444 0
615 534 0
688 552 0
669 570 0
578 571 0
577 611 0
762 544 0
762 556 0
728 611 0
696 530 0
716 529 0
701 509 0
762 506 0
762 394 0
738 423 0
704 483 0
634 388 0
534 506 0
532 345 0
520 357 0
563 354 0
571 381 0
683 388 0
712 374 0
511 323 0
520 343 0
551 319 0
502 318 0
657 300 0
483 307 0
495 301 0
501 312 0
491 314 0
483 318 0
488 319 0
481 328 0
467 332 0
456 321 0
450 318 0
440 321 0
434 310 0
417 313 0
446 314 0
471 314 0
475 305 0
478 312 0
457 289 0
461 288 0
448 297 0
447 289 0
422 290 0
428 275 0
412 283 0
425 271 0
437 269 0
451 271 0
462 274 0
501 277 0
470 271 0
474 289 0
469 292 0
473 294 0
506 295 0
522 299 0
513 300 0
581 295 0
538 294 0
563 279 0
507 286 0
681 248 0
747 222 0
577 266 0
557 213 0
554 265 0
553 185 0
534 201 0
558 177 0
591 176 0
606 187 0
607 204 0
577 151 0
548 158 0
555 151 0
548 144 0
582 137 0
544 146 0
547 138 0
532 153 0
545 160 0
539 161 0
535 165 0
529 161 0
529 195 0
518 158 0
525 152 0
513 142 0
465 172 0
460 163 0
473 182 0
497 185 0
467 192 0
500 198 0
485 229 0
470 205 0
489 218 0
494 230 0
502 208 0
520 224 0
466 252 0
469 236 0
458 263 0
456 246 0
443 253 0
446 265 0
403 266 0
407 264 0
395 261 0
406 254 0
431 256 0
374 257 0
377 253 0
394 256 0
379 263 0
384 266 0
388 267 0
357 257 0
362 265 0
349 256 0
347 265 0
321 266 0
353 255 0
344 250 0
326 236 0
359 233 0
365 234 0
365 250 0
364 225 0
345 221 0
334 231 0
312 229 0
323 213 0
329 152 0
326 170 0
322 186 0
331 189 0
353 188 0
365 147 0
368 181 0
365 163 0
380 138 0
381 190 0
382 203 0
375 222 0
412 221 0
409 233 0
395 180 0
415 180 0
414 153 0
441 172 0
683 99 0
658 107 0
681 89 0
640 75 0
669 57 0
607 98 0
617 57 0
533 101 0
570 132 0
594 134 0
564 133 0
522 134 0
527 129 0
514 132 0
495 134 0
365 115 0
367 57 0
324 109 0
369 94 0
406 70 0
507 71 0
469 100 0
635 33 0
610 40 0
599 30 0
583 38 0
441 44 0
449 1 0
340 19 0
460 27 0
494 16 0
577 1 0
521 16 0
666 39 0
651 9 0
666 22 0
660 42 0
666 46 0
649 52 0
678 15 0
686 47 0
683 41 0
668 13 0
680 1 0
670 1 0
697 26 0
693 1 0
705 1 0
707 8 0
714 14 0
711 47 0
713 42 0
700 38 0
697 50 0
697 43 0
696 34 0
688 56 0
693 55 0
689 63 0
695 68 0
690 91 0
713 116 0
716 132 0
696 79 0
710 58 0
704 58 0
698 55 0
739 49 0
725 61 0
725 76 0
726 108 0
733 78 0
756 62 0
752 133 0
751 117 0
749 62 0
762 60 0
751 51 0
744 32 0
762 46 0
751 35 0
738 38 0
734 44 0
727 34 0
720 24 0
717 1 0
721 1 0
732 26 0
735 12 0
762 24 0
1 1 0
0 7 0
4 8 0
4 17 0
0 14 0
14 6 0
7 22 0
9 5 0
4 4 0
10 1 0
6 1 0
37 1 0
19 1 0
51 1 0
60 1 0
81 1 0
46 15 0
85 20 0
70 15 0
28 8 0
24 16 0
14 14 0
27 34 0
37 30 0
54 23 0
66 27 0
55 38 0
58 86 0
71 61 0
69 43 0
51 52 0
45 66 0
37 46 0
26 82 0
17 71 0
17 48 0
23 25 0
18 38 0
5 34 0
0 23 0
8 45 0
0 51 0
0 74 0
8 58 0
0 114 0
0 141 0
0 94 0
16 117 0
17 135 0
19 225 0
21 184 0
20 156 0
12 199 0
0 187 0
0 210 0
0 257 0
0 243 0
0 274 0
0 285 0
0 298 0
13 292 0
15 313 0
22 301 0
15 276 0
19 256 0
0 230 0
28 282 0
41 260 0
44 292 0
59 303 0
35 307 0
93 307 0
75 316 0
80 296 0
68 289 0
91 283 0
89 269 0
77 231 0
92 249 0
91 260 0
73 253 0
[...]
CELL_DATA 7427
COLOR_SCALARS ColorSpace 1
0.921569
0.396078
0.504575
0.396078
0.396078
0.50719
0.396078
0.496732
0.371242
0.564706
0.921569
0.921569
0.415686
0.436601
0.921569
0.405229
0.921569
0.473203
0.564706
0.921569
0.410458
0.921569
0.921569
0.542484
0.452288
0.396078
0.396078
0.917647
0.921569
0.518954
0.396078
0.396078
0.443137
0.535948
0.551634
0.396078
0.921569
0.564706
0.921569
0.396078
0.396078
0.518954
0.396078
0.564706
0.392157
0.921569
0.921569
0.921569
0.396078
0.447059
0.396078
0.396078
0.917647
0.921569
0.423529
0.921569
0.488889
0.564706
0.389542
0.564706
0.512418
0.564706
0.396078
0.509804
0.563399
0.45098
0.424837
0.436601
0.569935
0.396078
0.564706
0.393464
0.56732
0.560784
0.921569
0.847059
0.920261
0.465359
0.921569
0.564706
0.921569
0.921569
0.635294
0.921569
0.564706
0.568627
0.564706
0.389542
0.564706
0.564706
0.921569
0.397386
0.921569
0.389542
0.789542
0.571242
0.921569
0.921569
0.921569
0.921569
0.921569
0.903268
0.921569
0.546405
0.602614
0.921569
0.751634
0.921569
0.921569
0.380392
0.921569
0.921569
0.921569
0.921569
0.921569
0.835294
0.921569
0.921569
0.921569
0.547712
0.921569
0.388235
0.452288
0.921569
0.396078
0.396078
0.920261
0.396078
0.87451
0.396078
0.921569
0.921569
0.921569
0.439216
0.453595
0.396078
0.396078
0.396078
0.921569
0.921569
0.921569
0.396078
0.798693
0.396078
0.396078
0.396078
0.479739
0.396078
0.396078
0.396078
0.403922
0.396078
0.403922
0.396078
0.396078
0.422222
0.564706
0.529412
0.572549
0.394771
0.479739
0.573856
0.564706
0.551634
0.566013
0.539869
0.564706
0.564706
0.564706
0.564706
0.564706
0.512418
0.562092
0.568627
0.422222
0.396078
0.39085
0.396078
0.396078
0.392157
0.396078
0.396078
0.396078
0.397386
0.396078
0.512418
0.396078
0.4
0.396078
0.917647
0.396078
0.396078
0.503268
0.921569
0.396078
0.411765
0.771242
0.396078
0.918954
0.921569
0.921569
0.861438
0.920261
0.396078
0.820915
0.908497
0.847059
0.921569
0.403922
0.921569
0.394771
0.396078
0.4
0.393464
0.566013
0.559477
0.4
0.547712
0.921569
0.396078
0.555556
0.921569
0.396078
0.921569
0.921569
0.921569
0.915033
0.921569
0.921569
0.921569
0.396078
0.564706
0.737255
0.91634
0.921569
0.481046
0.908497
0.91634
0.537255
0.920261
0.479739
0.426144
0.457516
0.396078
0.551634
0.396078
0.921569
0.552941
0.564706
0.564706
0.564706
0.512418
0.915033
0.564706
0.921569
0.562092
0.564706
0.793464
0.677124
0.920261
0.920261
0.39085
0.388235
0.457516
0.564706
0.564706
0.564706
0.564706
0.458824
0.573856
0.564706
0.56732
0.571242
0.499346
0.396078
0.526797
0.396078
0.448366
0.394771
0.454902
0.396078
0.513725
0.396078
0.396078
0.457516
0.564706
0.564706
0.56732
0.396078
0.488889
0.396078
0.495425
0.513725
0.564706
0.564706
0.564706
0.545098
0.564706
0.564706
0.564706
0.564706
0.396078
0.562092
0.564706
0.564706
0.564706
0.564706
0.564706
0.501961
0.564706
0.564706
0.564706
0.564706
0.921569
0.564706
0.921569
0.921569
0.921569
0.921569
0.564706
0.682353
0.921569
0.844444
0.564706
0.564706
0.564706
0.564706
0.564706
0.564706
0.533333
0.500654
0.921569
0.402614
0.921569
0.564706
0.921569
0.921569
0.921569
0.921569
0.921569
0.921569
0.921569
0.921569
0.921569
0.921569
0.921569
0.921569
0.921569
0.921569
0.921569
0.921569
0.564706
0.564706
0.564706
0.921569
0.564706
0.564706
0.921569
0.921569
0.564706
0.564706
0.564706
0.564706
0.566013
0.564706
0.564706
0.564706
0.478431
0.564706
0.564706
0.921569
0.564706
0.564706
0.921569
0.564706
0.802614
0.881046
0.564706
0.401307
0.396078
0.550327
0.921569
0.921569
0.396078
0.396078
0.478431
0.396078
0.396078
0.56732
0.396078
0.543791
0.396078
0.509804
0.464052
0.564706
0.564706
0.564706
0.498039
0.498039
0.396078
0.396078
0.396078
0.393464
0.396078
0.396078
0.396078
0.396078
0.396078
0.579085
0.396078
0.422222
0.394771
0.752941
0.396078
0.487582
0.396078
0.394771
0.393464
0.396078
0.921569
0.396078
0.414379
0.918954
0.917647
0.452288
0.396078
0.920261
0.396078
0.396078
0.921569
0.921569
0.4
0.921569
0.921569
0.917647
0.921569
0.921569
0.921569
0.780392
0.921569
0.49281
0.921569
0.921569
0.551634
0.564706
0.921569
0.921569
0.920261
0.921569
0.407843
0.730719
0.921569
0.776471
0.559477
0.921569
0.498039
0.921569
0.921569
0.921569
0.921569
0.921569
0.921569
0.921569
0.921569
0.921569
0.921569
0.593464
0.921569
0.921569
0.921569
0.921569
0.921569
0.921569
0.921569
0.921569
0.921569
0.921569
0.921569
0.921569
0.921569
0.921569
0.921569
0.921569
0.921569
0.921569
0.918954
0.921569
0.921569
0.921569
0.921569
0.921569
0.921569
0.921569
0.921569
0.921569
0.921569
0.921569
0.684967
0.921569
0.921569
0.921569
0.742484
0.623529
0.388235
0.921569
0.388235
0.920261
0.396078
0.559477
0.51634
0.696732
0.396078
0.867974
0.920261
0.921569
0.528105
0.921569
0.91634
0.920261
0.921569
0.415686
0.726797
0.766013
0.918954
0.921569
0.921569
0.921569
0.921569
0.87451
0.921569
0.921569
0.921569
0.921569
0.921569
0.921569
0.921569
0.921569
0.921569
0.921569
0.921569
0.921569
0.921569
0.921569
0.921569
0.921569
0.627451
0.921569
0.921569
0.396078
0.559477
0.921569
0.921569
0.921569
0.45098
0.583007
0.768627
0.921569
0.921569
0.921569
0.921569
0.921569
0.921569
0.921569
0.921569
0.921569
0.626144
0.921569
0.921569
0.921569
0.596078
0.921569
0.393464
0.447059
0.396078
0.397386
0.406536
0.393464
0.396078
0.396078
0.396078
0.396078
0.396078
0.477124
0.396078
0.396078
0.396078
0.56732
0.396078
0.437908
0.396078
0.396078
0.396078
0.396078
0.396078
0.396078
0.396078
0.396078
0.396078
0.396078
0.396078
0.396078
0.396078
0.394771
0.396078
0.396078
0.396078
0.394771
0.396078
0.526797
0.396078
0.389542
0.396078
0.396078
0.396078
0.396078
0.396078
0.396078
0.396078
0.396078
0.921569
0.921569
0.396078
0.921569
0.396078
0.396078
0.396078
0.396078
0.397386
0.396078
0.396078
0.517647
0.394771
0.396078
0.554248
0.396078
0.45098
0.505882
0.396078
0.4
0.394771
0.508497
0.396078
0.396078
0.481046
0.509804
0.543791
0.396078
0.396078
0.396078
0.508497
0.503268
0.396078
0.396078
0.452288
0.396078
0.396078
0.396078
0.396078
0.501961
0.396078
0.564706
0.568627
0.539869
0.563399
0.56732
0.396078
0.393464
0.403922
0.532026
0.486275
0.45098
0.466667
0.533333
0.396078
0.495425
0.524183
0.467974
0.534641
0.394771
0.573856
0.564706
0.568627
0.564706
0.564706
0.564706
0.564706
0.564706
0.564706
0.564706
0.564706
0.396078
0.564706
0.564706
0.564706
0.560784
0.462745
0.396078
0.564706
0.396078
0.414379
0.396078
0.396078
0.396078
0.396078
0.396078
0.396078
0.396078
0.521569
0.39085
0.396078
0.396078
0.466667
0.403922
0.488889
0.4
0.515033
0.398693
0.564706
0.564706
0.508497
0.396078
0.533333
0.452288
0.396078
0.396078
0.396078
0.535948
0.396078
0.556863
0.396078
0.396078
0.396078
0.518954
0.436601
0.396078
0.396078
0.396078
0.396078
0.396078
0.504575
0.448366
0.401307
0.452288
0.396078
0.396078
0.458824
0.422222
0.392157
0.393464
0.512418
0.501961
0.396078
0.396078
0.396078
0.396078
0.398693
0.396078
0.396078
0.396078
0.396078
0.396078
0.396078
0.396078
0.396078
0.873203
0.396078
0.396078
0.396078
0.424837
0.396078
0.396078
0.556863
0.396078
0.918954
0.528105
0.921569
0.628758
0.54902
0.921569
0.921569
0.921569
0.920261
0.921569
0.396078
0.396078
0.920261
0.39085
0.64183
0.454902
0.396078
0.396078
0.396078
0.396078
0.396078
0.396078
0.728105
0.581699
0.479739
0.396078
0.454902
0.396078
0.920261
0.413072
0.921569
0.628758
0.921569
0.920261
0.921569
0.921569
0.921569
0.921569
0.921569
0.921569
0.921569
0.921569
0.396078
0.4
0.921569
0.396078
0.905882
0.512418
0.90719
0.394771
0.556863
0.407843
0.921569
0.921569
0.426144
0.443137
0.45098
0.396078
0.454902
0.396078
0.454902
0.396078
0.394771
0.398693
0.396078
0.460131
0.398693
0.396078
0.396078
0.396078
0.396078
0.396078
0.396078
0.396078
0.500654
0.396078
0.396078
0.39085
0.486275
0.515033
0.396078
0.396078
0.396078
0.396078
0.396078
0.562092
0.513725
0.465359
0.569935
0.518954
0.564706
0.564706
0.920261
0.396078
0.396078
0.533333
0.462745
0.396078
0.888889
0.396078
0.396078
0.396078
0.396078
0.396078
0.918954
0.396078
0.921569
0.704575
0.921569
0.921569
0.921569
0.921569
0.921569
0.921569
0.918954
0.921569
0.921569
0.921569
0.921569
0.920261
0.921569
0.921569
0.921569
0.921569
0.921569
0.711111
0.921569
0.596078
0.921569
0.861438
0.921569
0.867974
0.688889
0.921569
0.921569
0.921569
0.921569
0.921569
0.921569
0.921569
0.921569
0.921569
0.921569
0.915033
0.921569
0.921569
0.915033
0.920261
0.921569
0.918954
0.572549
0.698039
0.431373
0.573856
0.833987
0.431373
0.904575
0.734641
0.921569
0.913725
0.444444
0.486275
0.745098
0.745098
0.918954
0.921569
0.918954
0.921569
0.921569
0.921569
0.921569
0.920261
0.918954
0.601307
0.443137
0.677124
0.580392
0.397386
0.56732
0.696732
0.564706
0.921569
0.518954
0.921569
0.563399
0.513725
0.447059
0.921569
0.423529
0.528105
0.407843
0.858824
0.396078
0.448366
0.392157
0.396078
0.396078
0.454902
0.563399
0.453595
0.535948
0.518954
0.555556
0.396078
0.396078
0.396078
0.566013
0.496732
0.530719
0.564706
0.56732
0.448366
0.50719
0.45098
0.566013
0.564706
0.473203
0.564706
0.560784
0.552941
0.564706
0.564706
0.543791
0.45098
0.564706
0.560784
0.563399
0.564706
0.564706
0.564706
0.921569
0.68366
0.564706
0.569935
0.741176
0.564706
0.915033
0.564706
0.560784
0.564706
0.564706
0.560784
0.539869
0.56732
0.564706
0.50719
0.921569
0.678431
0.921569
0.921569
0.921569
0.921569
0.921569
0.921569
0.921569
0.921569
0.921569
0.921569
0.921569
0.921569
0.921569
0.921569
0.803922
0.921569
0.921569
0.564706
0.796078
0.564706
0.564706
0.524183
0.564706
0.74902
0.564706
0.528105
0.564706
0.56732
0.564706
0.564706
0.564706
0.564706
0.801307
0.564706
0.566013
0.564706
0.564706
0.559477
0.564706
0.559477
0.495425
0.564706
0.564706
0.564706
0.453595
0.477124
0.564706
0.511111
0.551634
0.564706
0.564706
0.564706
0.503268
0.52549
0.564706
0.564706
0.559477
0.564706
0.564706
0.490196
0.564706
0.543791
0.45098
0.397386
0.554248
0.564706
0.566013
0.396078
0.495425
0.447059
0.396078
0.456209
0.396078
0.394771
0.396078
0.406536
0.396078
0.4
0.411765
0.4
0.564706
0.568627
0.448366
0.564706
0.397386
0.420915
0.562092
0.420915
0.396078
0.396078
0.396078
0.396078
0.396078
0.396078
0.564706
0.394771
0.393464
0.396078
0.454902
0.500654
0.396078
0.396078
0.573856
0.478431
0.494118
0.508497
0.495425
0.512418
0.564706
0.403922
0.564706
0.552941
0.564706
0.445752
0.528105
0.393464
0.407843
0.564706
0.443137
0.564706
0.392157
0.431373
0.564706
0.499346
0.56732
0.436601
0.563399
0.564706
0.564706
0.564706
0.388235
0.396078
0.394771
0.396078
0.396078
0.396078
0.396078
0.396078
0.396078
0.396078
0.393464
0.394771
0.562092
0.418301
0.396078
0.396078
0.396078
0.396078
0.396078
0.504575
0.520261
0.456209
0.4
0.396078
0.398693
0.4
0.566013
0.424837
0.563399
0.398693
0.501961
0.473203
0.56732
0.522876
0.564706
0.564706
0.568627
0.56732
0.500654
0.45098
0.542484
0.564706
0.568627
0.513725
0.521569
0.564706
0.487582
0.564706
0.56732
0.562092
0.564706
0.564706
0.564706
0.568627
0.564706
0.564706
0.564706
0.564706
0.564706
0.564706
0.564706
0.435294
0.579085
0.54902
0.528105
0.40915
0.568627
0.508497
0.389542
0.430065
0.396078
0.396078
0.448366
0.396078
0.448366
0.393464
0.388235
0.396078
0.396078
0.396078
0.396078
0.396078
0.394771
0.393464
0.447059
0.396078
0.568627
0.396078
0.388235
0.385621
0.564706
0.528105
0.454902
0.564706
0.398693
0.488889
0.394771
0.564706
0.564706
0.569935
0.556863
0.401307
0.503268
0.397386
0.564706
0.564706
0.564706
0.532026
0.564706
0.564706
0.564706
0.559477
0.564706
0.564706
0.564706
0.564706
0.921569
0.564706
0.797386
0.921569
0.564706
0.564706
0.921569
0.921569
0.564706
0.564706
0.564706
0.564706
0.537255
0.504575
0.384314
0.564706
0.40915
0.509804
0.430065
0.564706
0.564706
0.541176
0.564706
0.564706
0.564706
0.847059
0.921569
0.675817
0.921569
0.560784
0.564706
0.564706
0.466667
0.380392
0.564706
0.559477
0.383007
0.445752
0.520261
0.564706
0.486275
0.420915
0.420915
0.520261
0.420915
0.462745
0.383007
0.420915
0.380392
0.566013
0.411765
0.564706
0.564706
0.564706
0.518954
0.564706
0.564706
0.564706
0.564706
0.564706
0.56732
0.564706
0.443137
0.564706
0.564706
0.564706
0.564706
0.564706
0.564706
0.521569
0.564706
0.564706
0.564706
0.564706
0.564706
0.533333
0.564706
0.564706
0.560784
0.491503
0.513725
0.478431
0.564706
0.921569
0.921569
0.921569
0.921569
0.912418
0.918954
0.564706
0.921569
0.921569
0.921569
0.921569
0.921569
0.921569
0.921569
0.921569
0.917647
0.528105
0.912418
0.60915
0.921569
0.921569
0.921569
0.921569
0.921569
0.921569
0.921569
0.921569
0.921569
0.921569
0.921569
0.921569
0.921569
0.921569
0.921569
0.921569
0.921569
0.921569
0.921569
0.921569
0.921569
0.921569
0.921569
0.921569
0.921569
0.921569
0.921569
0.921569
0.68366
0.679739
0.564706
0.798693
0.564706
0.921569
0.917647
0.920261
0.921569
0.921569
0.921569
0.921569
0.564706
0.564706
0.564706
0.564706
0.564706
0.921569
0.560784
0.564706
0.921569
0.921569
0.564706
0.475817
0.564706
0.564706
0.564706
0.564706
0.512418
0.509804
0.559477
0.566013
0.39085
0.564706
0.566013
0.414379
0.564706
0.564706
0.56732
0.564706
0.564706
0.563399
0.564706
0.564706
0.564706
0.564706
0.564706
0.564706
0.564706
0.568627
0.569935
0.448366
0.424837
0.564706
0.454902
0.444444
0.426144
0.562092
0.396078
0.559477
0.528105
0.503268
0.449673
0.394771
0.564706
0.555556
0.396078
0.564706
0.56732
0.564706
0.396078
0.537255
0.397386
0.427451
0.55817
0.515033
0.564706
0.564706
0.564706
0.564706
0.564706
0.564706
0.564706
0.564706
0.447059
0.559477
0.560784
0.562092
0.564706
0.564706
0.564706
0.564706
0.564706
0.564706
0.564706
0.564706
0.564706
0.564706
0.686275
0.564706
0.564706
0.564706
0.921569
0.921569
0.921569
0.921569
0.68366
0.921569
0.796078
0.470588
0.564706
0.564706
0.577778
0.921569
0.564706
0.564706
0.482353
0.921569
0.810458
0.798693
0.921569
0.920261
0.921569
0.921569
0.920261
0.623529
0.568627
0.564706
0.80915
0.40915
0.921569
0.39085
0.688889
0.921569
0.921569
0.734641
0.91634
0.555556
0.54902
0.559477
0.562092
0.742484
0.535948
0.375163
0.524183
0.439216
0.39085
0.470588
0.520261
0.396078
0.743791
0.550327
0.917647
0.921569
0.921569
0.920261
0.396078
0.396078
0.746405
0.743791
0.396078
0.388235
0.396078
0.396078
0.396078
0.396078
0.401307
0.396078
0.444444
0.431373
0.396078
0.396078
0.396078
0.396078
0.394771
0.54902
0.396078
0.564706
0.564706
0.564706
0.396078
0.522876
0.466667
0.396078
0.564706
0.396078
0.515033
0.396078
0.396078
0.396078
0.433987
0.496732
0.481046
0.563399
0.396078
0.396078
0.443137
0.539869
0.396078
0.396078
0.396078
0.396078
0.505882
0.396078
0.568627
0.512418
0.396078
0.396078
0.513725
0.460131
0.394771
0.503268
0.504575
0.566013
0.396078
0.556863
0.397386
0.559477
0.392157
0.396078
0.397386
0.396078
0.396078
0.396078
0.394771
0.403922
0.419608
0.403922
0.495425
0.471895
0.396078
0.389542
0.396078
0.396078
0.518954
0.396078
0.396078
0.396078
0.396078
0.396078
0.396078
0.394771
0.396078
0.396078
0.396078
0.396078
0.921569
0.921569
0.920261
0.581699
0.396078
0.406536
0.403922
0.396078
0.396078
0.396078
0.921569
0.43268
0.423529
0.396078
0.921569
0.742484
0.921569
0.739869
0.433987
0.396078
0.396078
0.396078
0.396078
0.396078
0.396078
0.396078
0.396078
0.396078
0.568627
0.396078
0.388235
0.396078
0.4
0.4
0.396078
0.396078
0.921569
0.921569
0.602614
0.917647
0.571242
0.564706
0.68366
0.921569
0.911111
0.564706
0.921569
0.921569
0.921569
0.921569
0.921569
0.921569
0.63268
0.918954
0.568627
0.921569
0.920261
0.920261
0.921569
0.920261
0.921569
0.921569
0.921569
0.921569
0.921569
0.921569
0.921569
0.921569
0.921569
0.921569
0.921569
0.921569
0.921569
0.921569
0.921569
0.921569
0.921569
0.921569
0.921569
0.921569
0.921569
0.921569
0.921569
0.921569
0.921569
0.921569
0.921569
0.921569
0.921569
0.921569
0.921569
0.921569
0.921569
0.921569
0.921569
0.921569
0.921569
0.921569
0.921569
0.921569
0.921569
0.921569
0.921569
0.921569
0.921569
0.921569
0.921569
0.921569
0.793464
0.797386
0.905882
0.921569
0.918954
0.921569
0.921569
0.670588
0.921569
0.900654
0.920261
0.921569
0.921569
0.918954
0.921569
0.705882
0.921569
0.921569
0.920261
0.918954
0.920261
0.403922
0.917647
0.393464
0.562092
0.453595
0.394771
0.449673
0.532026
0.564706
0.397386
0.505882
0.666667
0.396078
0.386928
0.563399
0.796078
0.564706
0.564706
0.564706
0.788235
0.564706
0.681046
0.669281
0.921569
0.921569
0.898039
0.921569
0.921569
0.662745
0.562092
0.54902
0.559477
0.56732
0.562092
0.560784
0.503268
0.670588
0.44183
0.792157
0.559477
0.921569
0.682353
0.921569
0.921569
0.921569
0.921569
0.921569
0.921569
0.921569
0.921569
0.921569
0.440523
0.921569
0.921569
0.917647
0.921569
0.921569
0.445752
0.918954
0.917647
0.60915
0.735948
0.50719
0.389542
0.396078
0.414379
0.396078
0.560784
0.921569
0.911111
0.555556
0.383007
0.920261
0.921569
0.921569
0.921569
0.921569
0.921569
0.921569
0.921569
0.921569
0.921569
0.921569
0.921569
0.921569
0.921569
0.921569
0.921569
0.921569
0.921569
0.921569
0.921569
0.921569
0.921569
0.921569
0.921569
0.921569
0.921569
0.921569
0.921569
0.921569
0.921569
0.921569
0.921569
0.921569
0.921569
0.921569
0.921569
0.921569
0.921569
0.921569
0.921569
0.921569
0.921569
0.921569
0.921569
0.921569
0.921569
0.921569
0.921569
0.921569
0.921569
0.921569
0.921569
0.921569
0.921569
0.921569
0.921569
0.921569
0.921569
0.921569
0.921569
0.921569
0.921569
0.921569
0.921569
0.921569
0.921569
0.921569
0.921569
0.921569
0.921569
0.921569
0.921569
0.921569
0.921569
0.921569
0.921569
0.921569
0.921569
0.921569
0.921569
0.921569
0.921569
0.921569
0.921569
0.921569
0.921569
0.921569
0.921569
0.921569
0.921569
0.921569
0.921569
0.921569
0.921569
0.921569
0.921569
0.921569
0.921569
0.921569
0.921569
0.921569
0.921569
0.921569
0.921569
0.921569
0.921569
0.921569
0.921569
0.921569
0.921569
0.921569
0.921569
0.921569
0.921569
0.921569
0.921569
0.921569
0.921569
0.921569
0.920261
0.921569
0.921569
0.920261
0.921569
0.921569
0.921569
0.921569
0.921569
0.921569
0.921569
0.921569
0.921569
0.921569
0.921569
0.921569
0.921569
0.921569
0.921569
0.921569
0.921569
0.921569
0.921569
0.921569
0.921569
0.921569
0.921569
0.921569
0.921569
0.921569
0.921569
0.921569
0.921569
0.921569
0.921569
0.921569
0.921569
0.921569
0.921569
0.920261
0.921569
0.921569
0.921569
0.921569
0.920261
0.921569
0.921569
0.920261
0.920261
0.921569
0.755556
0.398693
0.529412
0.39085
0.913725
0.918954
0.920261
0.921569
0.921569
0.921569
0.921569
0.921569
0.921569
0.920261
0.920261
0.696732
0.466667
0.815686
0.918954
0.900654
0.39085
0.39085
0.396078
0.43268
0.797386
0.724183
0.521569
0.545098
0.918954
0.867974
0.396078
0.396078
0.396078
0.396078
0.396078
0.396078
0.396078
0.4
0.396078
0.4
0.479739
0.396078
0.479739
0.397386
0.396078
0.396078
0.436601
0.43268
0.396078
0.396078
0.396078
0.396078
0.396078
0.396078
0.4
0.385621
0.396078
0.59085
0.396078
0.396078
0.396078
0.560784
0.396078
0.396078
0.704575
0.750327
0.410458
0.74902
0.584314
0.921569
0.56732
0.375163
0.388235
0.375163
0.392157
0.396078
0.410458
0.396078
0.394771
0.4
0.402614
0.386928
0.555556
0.396078
0.921569
0.416993
0.921569
0.772549
0.921569
0.921569
0.921569
0.921569
0.921569
0.917647
0.921569
0.746405
0.416993
0.91634
0.759477
0.592157
0.918954
0.920261
0.921569
0.920261
0.918954
0.921569
0.921569
0.920261
0.921569
0.921569
0.921569
0.921569
0.921569
0.921569
0.921569
0.921569
0.921569
0.921569
0.921569
0.921569
0.921569
0.921569
0.921569
0.921569
0.921569
0.921569
0.921569
0.921569
0.921569
0.921569
0.921569
0.921569
0.921569
0.921569
0.921569
0.921569
0.921569
0.921569
0.921569
0.921569
0.921569
0.921569
0.921569
0.921569
0.921569
0.921569
0.921569
0.921569
0.921569
0.921569
0.921569
0.921569
0.921569
0.921569
0.921569
0.921569
0.921569
0.921569
0.921569
0.921569
0.921569
0.921569
0.921569
0.921569
0.921569
0.921569
0.921569
0.921569
0.921569
0.921569
0.921569
0.921569
0.921569
0.921569
0.677124
0.921569
0.921569
0.921569
0.921569
0.921569
0.921569
0.921569
0.921569
0.849673
0.921569
0.803922
0.921569
0.921569
0.921569
0.920261
0.921569
0.802614
0.739869
0.920261
0.592157
0.453595
0.921569
0.732026
0.564706
0.74902
0.398693
0.921569
0.738562
0.921569
0.921569
0.921569
0.921569
0.921569
0.920261
0.563399
0.921569
0.389542
0.392157
0.389542
0.396078
0.487582
0.396078
0.396078
0.396078
0.396078
0.396078
0.396078