# vtk DataFile Version 1.0
Unstructured Grid Example
ASCII

DATASET UNSTRUCTURED_GRID
POINTS 6500 float
46 211 0
27 258 0
183 370 0
315 213 0
455 164 0
490 52 0
221 126 0
64 102 0
173 47 0
125 16 0
8 128 0
14 339 0
174 365 0
224 253 0
49 126 0
387 247 0
343 406 0
443 244 0
466 197 0
446 165 0
421 141 0
365 141 0
353 119 0
363 9 0
481 93 0
99 21 0
28 32 0
82 16 0
101 31 0
264 1 0
360 24 0
290 42 0
189 28 0
143 40 0
201 42 0
348 46 0
326 61 0
285 62 0
252 80 0
142 66 0
150 61 0
138 61 0
89 65 0
130 80 0
97 124 0
100 81 0
14 105 0
2 150 0
31 224 0
0 302 0
51 385 0
36 295 0
72 219 0
177 339 0
178 413 0
254 378 0
223 340 0
265 326 0
239 304 0
189 310 0
129 122 0
258 116 0
290 281 0
466 260 0
413 245 0
405 247 0
473 326 0
455 372 0
437 423 0
456 511 0
468 440 0
465 328 0
498 352 0
476 486 0
506 505 0
507 396 0
512 324 0
506 323 0
478 312 0
481 269 0
489 237 0
506 257 0
486 205 0
487 151 0
456 217 0
453 149 0
448 219 0
442 222 0
404 207 0
438 184 0
441 180 0
478 130 0
462 99 0
378 75 0
422 8 0
429 60 0
499 51 0
482 112 0
512 147 0
504 127 0
501 36 0
60 24 0
60 2 0
29 10 0
69 9 0
10 49 0
9 61 0
41 63 0
25 42 0
37 38 0
81 27 0
76 61 0
95 52 0
84 37 0
121 31 0
145 23 0
107 11 0
74 4 0
113 5 0
120 3 0
195 1 0
163 1 0
158 15 0
208 8 0
264 7 0
308 6 0
314 16 0
311 13 0
299 8 0
339 45 0
341 48 0
278 52 0
239 58 0
212 58 0
190 18 0
186 17 0
175 26 0
169 30 0
186 35 0
228 106 0
218 78 0
236 97 0
243 101 0
325 72 0
335 71 0
344 88 0
330 103 0
271 76 0
214 111 0
221 111 0
267 111 0
223 118 0
222 122 0
206 130 0
207 121 0
190 108 0
195 123 0
195 131 0
155 107 0
186 109 0
167 131 0
171 109 0
182 104 0
186 98 0
129 65 0
161 66 0
164 78 0
97 77 0
96 66 0
85 67 0
39 86 0
6 87 0
28 103 0
114 89 0
105 108 0
61 119 0
0 113 0
62 168 0
30 147 0
43 150 0
12 155 0
86 132 0
98 139 0
133 166 0
88 154 0
85 166 0
84 188 0
150 181 0
92 211 0
80 196 0
76 247 0
59 233 0
50 188 0
49 177 0
41 206 0
32 240 0
58 273 0
39 260 0
24 265 0
43 280 0
0 325 0
0 332 0
60 349 0
20 303 0
5 293 0
62 282 0
82 392 0
132 318 0
112 316 0
87 306 0
73 272 0
67 277 0
71 247 0
78 271 0
82 265 0
215 338 0
240 299 0
197 284 0
225 260 0
156 342 0
161 513 0
250 484 0
238 340 0
254 339 0
326 404 0
319 462 0
336 457 0
339 446 0
334 415 0
314 387 0
297 281 0
265 257 0
324 268 0
328 250 0
334 227 0
334 214 0
306 227 0
310 219 0
263 226 0
251 238 0
264 221 0
291 219 0
295 217 0
213 162 0
198 157 0
189 154 0
197 153 0
221 147 0
279 202 0
303 213 0
327 201 0
335 179 0
341 143 0
390 202 0
371 223 0
345 216 0
370 195 0
410 196 0
442 212 0
444 219 0
419 222 0
393 215 0
442 231 0
451 226 0
450 265 0
429 260 0
409 232 0
398 262 0
385 243 0
377 225 0
373 239 0
381 264 0
389 361 0
367 343 0
350 368 0
378 391 0
367 434 0
356 451 0
369 421 0
383 409 0
377 406 0
396 372 0
391 388 0
405 505 0
430 439 0
445 433 0
446 353 0
406 357 0
433 283 0
451 291 0
451 284 0
469 342 0
457 338 0
464 342 0
455 351 0
466 354 0
452 364 0
474 504 0
474 426 0
485 391 0
496 409 0
494 462 0
497 470 0
512 453 0
507 372 0
488 343 0
486 353 0
492 342 0
497 343 0
505 343 0
496 284 0
512 321 0
502 268 0
494 309 0
470 328 0
468 334 0
454 260 0
460 260 0
461 306 0
476 234 0
468 255 0
460 211 0
462 192 0
486 197 0
496 215 0
486 250 0
510 250 0
511 235 0
512 191 0
501 154 0
504 169 0
512 188 0
490 154 0
508 130 0
506 122 0
476 135 0
505 148 0
478 152 0
458 147 0
471 120 0
452 153 0
448 155 0
450 165 0
452 168 0
465 168 0
468 172 0
458 174 0
453 173 0
417 180 0
447 159 0
432 156 0
418 169 0
367 182 0
351 176 0
377 168 0
393 174 0
402 164 0
378 150 0
373 140 0
375 130 0
379 118 0
385 116 0
393 117 0
389 126 0
394 144 0
422 122 0
416 117 0
433 101 0
448 88 0
418 92 0
421 90 0
414 103 0
409 103 0
371 96 0
401 99 0
412 91 0
379 80 0
354 51 0
346 50 0
367 36 0
402 45 0
408 53 0
416 55 0
417 87 0
431 57 0
423 13 0
458 1 0
466 4 0
492 4 0
487 24 0
459 44 0
462 57 0
454 69 0
473 109 0
479 81 0
493 61 0
494 69 0
495 74 0
510 98 0
512 84 0
496 81 0
504 40 0
499 68 0
507 35 0
509 21 0
512 20 0
16 3 0
16 11 0
12 1 0
24 4 0
47 4 0
64 2 0
53 9 0
43 11 0
33 9 0
73 14 0
78 13 0
60 18 0
56 21 0
47 16 0
34 26 0
38 23 0
29 18 0
3 22 0
10 26 0
0 29 0
31 29 0
23 35 0
14 38 0
3 41 0
0 52 0
28 54 0
7 40 0
20 39 0
36 46 0
46 49 0
69 52 0
76 51 0
61 46 0
74 40 0
63 41 0
43 36 0
47 31 0
67 39 0
112 26 0
119 22 0
105 29 0
79 31 0
87 45 0
83 53 0
103 46 0
90 40 0
115 39 0
132 48 0
124 50 0
144 56 0
135 54 0
138 42 0
127 37 0
123 37 0
128 33 0
140 32 0
144 34 0
130 18 0
137 13 0
139 22 0
120 10 0
95 19 0
91 19 0
94 16 0
111 14 0
113 18 0
98 5 0
87 7 0
93 1 0
94 4 0
96 2 0
101 4 0
98 8 0
117 5 0
144 4 0
101 1 0
158 3 0
146 1 0
174 3 0
165 4 0
159 19 0
149 24 0
176 17 0
178 9 0
162 7 0
185 20 0
191 23 0
194 25 0
198 18 0
210 18 0
217 15 0
203 14 0
198 3 0
210 1 0
232 6 0
242 1 0
242 8 0
260 2 0
274 7 0
292 1 0
310 4 0
302 9 0
294 7 0
293 4 0
300 19 0
309 16 0
314 22 0
310 21 0
295 23 0
281 19 0
291 14 0
265 13 0
237 20 0
242 21 0
259 26 0
240 26 0
249 30 0
272 32 0
276 27 0
315 27 0
311 33 0
295 28 0
289 32 0
316 45 0
321 44 0
309 50 0
307 45 0
302 49 0
299 43 0
302 37 0
247 37 0
290 48 0
245 56 0
233 47 0
203 53 0
225 55 0
229 42 0
233 32 0
224 27 0
209 35 0
199 38 0
208 39 0
181 31 0
177 29 0
172 26 0
145 27 0
162 28 0
146 46 0
163 42 0
189 52 0
185 47 0
165 47 0
169 60 0
183 60 0
183 68 0
177 66 0
169 72 0
165 88 0
180 90 0
172 79 0
181 74 0
193 75 0
187 94 0
200 95 0
197 84 0
199 78 0
191 66 0
185 75 0
191 57 0
198 56 0
201 63 0
214 73 0
205 66 0
219 62 0
231 80 0
270 63 0
314 58 0
315 81 0
235 75 0
233 67 0
273 84 0
306 82 0
312 86 0
305 89 0
299 95 0
230 91 0
263 86 0
208 85 0
203 92 0
228 95 0
256 108 0
216 104 0
218 100 0
252 103 0
282 96 0
307 96 0
318 107 0
299 103 0
263 106 0
249 110 0
299 116 0
271 118 0
251 117 0
246 117 0
241 117 0
235 111 0
224 109 0
219 121 0
215 124 0
203 127 0
195 127 0
205 124 0
214 114 0
200 102 0
214 101 0
197 100 0
190 113 0
193 113 0
185 106 0
188 105 0
176 98 0
169 98 0
166 101 0
162 114 0
181 111 0
182 121 0
177 115 0
175 121 0
122 122 0
135 103 0
149 106 0
122 111 0
103 124 0
93 120 0
76 106 0
81 115 0
109 115 0
112 102 0
99 98 0
78 93 0
104 90 0
112 93 0
112 84 0
118 98 0
124 100 0
119 91 0
129 85 0
134 79 0
144 82 0
152 78 0
149 75 0
157 67 0
160 60 0
132 58 0
154 59 0
135 66 0
121 69 0
128 58 0
105 56 0
93 57 0
86 62 0
72 72 0
108 70 0
116 82 0
90 80 0
70 81 0
62 78 0
47 79 0
59 87 0
60 95 0
58 68 0
68 66 0
45 56 0
51 60 0
51 68 0
17 77 0
23 65 0
0 62 0
3 65 0
0 71 0
15 81 0
20 80 0
41 81 0
19 96 0
0 86 0
19 107 0
7 112 0
0 101 0
28 110 0
48 97 0
50 104 0
62 107 0
40 114 0
38 107 0
32 119 0
32 115 0
70 124 0
45 124 0
40 126 0
25 127 0
28 119 0
22 120 0
25 122 0
4 122 0
5 142 0
14 128 0
2 140 0
7 135 0
0 165 0
1 171 0
9 166 0
3 164 0
1 143 0
16 141 0
17 146 0
28 160 0
28 151 0
23 145 0
30 140 0
25 138 0
15 133 0
28 131 0
36 137 0
81 137 0
51 139 0
42 145 0
85 150 0
97 131 0
116 136 0
136 145 0
109 143 0
101 151 0
82 157 0
86 158 0
105 172 0
85 162 0
71 162 0
62 163 0
59 156 0
49 159 0
52 169 0
56 170 0
64 183 0
50 201 0
70 181 0
76 180 0
89 181 0
131 187 0
127 202 0
99 202 0
92 188 0
83 205 0
96 220 0
86 226 0
85 220 0
72 229 0
62 226 0
67 211 0
50 212 0
61 218 0
59 229 0
47 228 0
50 228 0
44 228 0
39 221 0
47 215 0
50 208 0
30 201 0
35 204 0
31 219 0
28 194 0
5 193 0
4 189 0
3 197 0
1 202 0
3 207 0
26 202 0
28 222 0
26 218 0
12 211 0
9 232 0
0 236 0
6 236 0
19 234 0
37 233 0
39 230 0
42 236 0
41 240 0
22 241 0
17 242 0
20 246 0
35 248 0
25 271 0
16 262 0
5 266 0
6 250 0
4 247 0
2 258 0
0 272 0
14 314 0
0 275 0
5 279 0
11 309 0
0 337 0
0 512 0
0 351 0
4 320 0
0 317 0
19 360 0
20 492 0
29 342 0
39 339 0
26 338 0
40 323 0
34 326 0
15 283 0
22 296 0
38 312 0
74 317 0
45 310 0
76 309 0
82 319 0
67 344 0
68 370 0
72 378 0
81 371 0
83 350 0
85 325 0
90 360 0
114 428 0
110 349 0
98 342 0
124 325 0
109 322 0
95 322 0
102 308 0
121 315 0
83 278 0
84 272 0
83 298 0
69 290 0
51 308 0
50 296 0
43 293 0
57 294 0
63 289 0
55 243 0
51 255 0
44 233 0
45 241 0
53 239 0
63 230 0
68 269 0
70 242 0
84 240 0
85 234 0
234 271 0
222 271 0
215 268 0
239 261 0
239 247 0
241 255 0
261 269 0
260 257 0
239 271 0
256 274 0
260 276 0
259 292 0
255 306 0
236 309 0
231 291 0
225 286 0
215 289 0
223 302 0
222 312 0
203 321 0
196 315 0
186 316 0
154 320 0
140 327 0
160 424 0
183 426 0
202 339 0
203 329 0
215 367 0
207 374 0
216 393 0
235 346 0
235 331 0
259 330 0
258 324 0
207 323 0
213 323 0
252 314 0
266 341 0
283 317 0
262 321 0
296 370 0
270 408 0
269 499 0
280 429 0
305 416 0
296 379 0
307 382 0
315 426 0
319 454 0
321 422 0
317 391 0
315 361 0
313 381 0
315 334 0
319 349 0
321 319 0
281 276 0
286 280 0
282 298 0
283 282 0
279 311 0
264 312 0
269 310 0
273 283 0
277 290 0
303 268 0
278 265 0
264 262 0
292 263 0
299 264 0
314 269 0
307 273 0
319 261 0
315 256 0
320 254 0
317 242 0
300 242 0
305 239 0
320 234 0
308 215 0
321 197 0
308 201 0
307 210 0
297 221 0
292 203 0
288 193 0
288 207 0
283 207 0
276 217 0
282 220 0
286 219 0
297 232 0
294 237 0
273 239 0
263 214 0
271 217 0
266 243 0
263 231 0
250 247 0
221 234 0
147 229 0
187 213 0
259 219 0
148 189 0
136 193 0
138 182 0
142 177 0
144 183 0
165 172 0
155 193 0
268 188 0
268 173 0
190 171 0
188 149 0
191 158 0
187 157 0
183 157 0
176 160 0
158 160 0
145 155 0
166 156 0
183 148 0
170 146 0
142 145 0
155 136 0
157 130 0
165 135 0
189 128 0
185 134 0
189 142 0
194 139 0
190 139 0
201 129 0
210 130 0
207 140 0
207 137 0
197 136 0
195 144 0
196 150 0
208 160 0
203 146 0
207 143 0
211 140 0
210 144 0
294 160 0
291 138 0
269 134 0
282 132 0
229 132 0
213 129 0
215 131 0
223 128 0
342 220 0
334 208 0
338 217 0
358 218 0
330 221 0
327 233 0
334 233 0
353 228 0
337 222 0
378 216 0
381 223 0
388 234 0
383 229 0
389 229 0
391 207 0
389 212 0
365 205 0
395 206 0
395 200 0
399 201 0
399 207 0
406 217 0
409 210 0
427 201 0
430 204 0
424 216 0
421 207 0
414 211 0
428 222 0
428 219 0
438 223 0
431 232 0
427 230 0
418 227 0
425 219 0
407 221 0
409 225 0
402 233 0
410 239 0
408 247 0
418 246 0
419 242 0
422 235 0
428 241 0
434 245 0
430 244 0
422 243 0
425 249 0
429 249 0
440 259 0
435 250 0
421 255 0
[...]
CELL_DATA 12736
COLOR_SCALARS ColorSpace 1
0.354248
0.210458
0.278431
0.479739
0.373856
0.532026
0.351634
0.373856
0.461438
0.339869
0.457516
0.662745
0.495425
0.614379
0.652288
0.592157
0.571242
0.656209
0.628758
0.410458
0.467974
0.562092
0.359477
0.332026
0.542484
0.589542
0.416993
0.39085
0.305882
0.385621
0.547712
0.413072
0.524183
0.568627
0.376471
0.515033
0.568627
0.405229
0.346405
0.445752
0.39085
0.324183
0.418301
0.547712
0.431373
0.31634
0.458824
0.524183
0.454902
0.652288
0.301961
0.526797
0.342484
0.589542
0.424837
0.354248
0.44183
0.577778
0.40915
0.580392
0.51634
0.393464
0.322876
0.397386
0.322876
0.462745
0.36732
0.579085
0.402614
0.613072
0.597386
0.602614
0.478431
0.36732
0.295425
0.388235
0.662745
0.299346
0.562092
0.406536
0.366013
0.402614
0.656209
0.465359
0.811765
0.50719
0.477124
0.529412
0.56732
0.458824
0.309804
0.501961
0.385621
0.49281
0.426144
0.486275
0.508497
0.295425
0.504575
0.63268
0.490196
0.633987
0.45098
0.372549
0.541176
0.332026
0.377778
0.294118
0.491503
0.423529
0.499346
0.329412
0.371242
0.29281
0.352941
0.341176
0.393464
0.484967
0.402614
0.581699
0.45098
0.610458
0.462745
0.275817
0.406536
0.539869
0.508497
0.477124
0.456209
0.360784
0.543791
0.538562
0.550327
0.518954
0.673203
0.25098
0.439216
0.44183
0.515033
0.427451
0.48366
0.60915
0.478431
0.539869
0.571242
0.339869
0.571242
0.36732
0.539869
0.522876
0.482353
0.542484
0.416993
0.321569
0.566013
0.534641
0.496732
0.405229
0.496732
0.580392
0.411765
0.281046
0.469281
0.528105
0.457516
0.321569
0.645752
0.571242
0.65098
0.534641
0.4
0.535948
0.490196
0.428758
0.628758
0.526797
0.355556
0.633987
0.264052
0.501961
0.473203
0.579085
0.575163
0.670588
0.375163
0.551634
0.658824
0.563399
0.449673
0.59085
0.445752
0.35817
0.508497
0.440523
0.530719
0.369935
0.342484
0.491503
0.607843
0.564706
0.524183
0.363399
0.524183
0.48366
0.436601
0.589542
0.559477
0.343791
0.290196
0.471895
0.385621
0.644444
0.596078
0.658824
0.458824
0.271895
0.635294
0.576471
0.576471
0.619608
0.47451
0.511111
0.40915
0.464052
0.445752
0.453595
0.427451
0.673203
0.27451
0.535948
0.416993
0.380392
0.385621
0.270588
0.488889
0.36732
0.427451
0.487582
0.562092
0.588235
0.601307
0.456209
0.377778
0.552941
0.649673
0.537255
0.662745
0.636601
0.705882
0.308497
0.475817
0.36732
0.384314
0.505882
0.43268
0.571242
0.356863
0.596078
0.620915
0.453595
0.405229
0.396078
0.45098
0.335948
0.405229
0.508497
0.426144
0.550327
0.636601
0.454902
0.362092
0.452288
0.583007
0.662745
0.54902
0.339869
0.670588
0.627451
0.379085
0.398693
0.428758
0.411765
0.445752
0.326797
0.35817
0.248366
0.535948
0.522876
0.330719
0.431373
0.380392
0.377778
0.430065
0.43268
0.350327
0.321569
0.166013
0.411765
0.351634
0.426144
0.352941
0.415686
0.388235
0.449673
0.424837
0.279739
0.436601
0.478431
0.329412
0.584314
0.530719
0.28366
0.312418
0.466667
0.313725
0.388235
0.526797
0.602614
0.643137
0.471895
0.484967
0.462745
0.384314
0.415686
0.467974
0.6
0.248366
0.413072
0.449673
0.423529
0.572549
0.456209
0.496732
0.315033
0.284967
0.452288
0.31634
0.414379
0.593464
0.460131
0.471895
0.503268
0.411765
0.34902
0.277124
0.36732
0.461438
0.439216
0.376471
0.322876
0.364706
0.218301
0.682353
0.296732
0.630065
0.197386
0.350327
0.333333
0.345098
0.55817
0.281046
0.39085
0.509804
0.610458
0.515033
0.695425
0.586928
0.294118
0.554248
0.636601
0.440523
0.529412
0.503268
0.490196
0.59085
0.623529
0.537255
0.528105
0.427451
0.633987
0.386928
0.411765
0.341176
0.494118
0.55817
0.610458
0.40915
0.528105
0.337255
0.488889
0.159477
0.389542
0.407843
0.448366
0.605229
0.385621
0.469281
0.602614
0.437908
0.616993
0.44183
0.385621
0.398693
0.416993
0.406536
0.51634
0.193464
0.538562
0.218301
0.593464
0.275817
0.253595
0.269281
0.254902
0.410458
0.354248
0.63268
0.631373
0.453595
0.508497
0.690196
0.457516
0.44183
0.532026
0.563399
0.705882
0.392157
0.452288
0.31634
0.402614
0.379085
0.294118
0.500654
0.288889
0.356863
0.305882
0.311111
0.23268
0.456209
0.308497
0.295425
0.294118
0.173856
0.262745
0.415686
0.35817
0.273203
0.258824
0.40915
0.356863
0.189542
0.350327
0.328105
0.220915
0.363399
0.312418
0.379085
0.311111
0.479739
0.281046
0.201307
0.356863
0.248366
0.321569
0.449673
0.326797
0.298039
0.515033
0.360784
0.196078
0.299346
0.410458
0.407843
0.301961
0.458824
0.576471
0.579085
0.911111
0.406536
0.91634
0.602614
0.393464
0.584314
0.296732
0.375163
0.318954
0.522876
0.384314
0.569935
0.470588
0.478431
0.682353
0.436601
0.700654
0.427451
0.211765
0.49281
0.406536
0.51634
0.398693
0.597386
0.500654
0.456209
0.406536
0.420915
0.547712
0.423529
0.383007
0.284967
0.452288
0.414379
0.453595
0.495425
0.364706
0.49281
0.478431
0.467974
0.573856
0.635294
0.512418
0.305882
0.296732
0.311111
0.332026
0.29281
0.267974
0.577778
0.532026
0.424837
0.555556
0.433987
0.296732
0.539869
0.338562
0.456209
0.422222
0.256209
0.286275
0.279739
0.260131
0.647059
0.648366
0.563399
0.518954
0.401307
0.569935
0.372549
0.398693
0.413072
0.39085
0.411765
0.359477
0.342484
0.464052
0.43268
0.542484
0.505882
0.326797
0.309804
0.282353
0.447059
0.312418
0.423529
0.405229
0.354248
0.338562
0.426144
0.475817
0.456209
0.500654
0.440523
0.443137
0.308497
0.555556
0.460131
0.464052
0.439216
0.522876
0.435294
0.388235
0.407843
0.508497
0.427451
0.258824
0.517647
0.466667
0.562092
0.372549
0.35817
0.498039
0.524183
0.498039
0.477124
0.377778
0.560784
0.520261
0.586928
0.329412
0.538562
0.529412
0.585621
0.359477
0.478431
0.601307
0.520261
0.362092
0.447059
0.388235
0.363399
0.65098
0.504575
0.427451
0.517647
0.35817
0.580392
0.566013
0.479739
0.424837
0.379085
0.469281
0.547712
0.543791
0.500654
0.596078
0.40915
0.398693
0.428758
0.423529
0.513725
0.675817
0.47451
0.504575
0.560784
0.40915
0.541176
0.243137
0.423529
0.571242
0.47451
0.449673
0.643137
0.363399
0.420915
0.51634
0.478431
0.478431
0.45098
0.356863
0.592157
0.275817
0.322876
0.389542
0.618301
0.486275
0.633987
0.579085
0.458824
0.610458
0.611765
0.512418
0.4
0.49281
0.545098
0.356863
0.605229
0.537255
0.513725
0.449673
0.465359
0.533333
0.440523
0.447059
0.422222
0.458824
0.435294
0.464052
0.466667
0.528105
0.649673
0.465359
0.54902
0.427451
0.362092
0.504575
0.364706
0.273203
0.592157
0.381699
0.633987
0.315033
0.449673
0.572549
0.428758
0.538562
0.352941
0.440523
0.454902
0.528105
0.593464
0.494118
0.482353
0.601307
0.454902
0.431373
0.708497
0.511111
0.491503
0.470588
0.458824
0.437908
0.500654
0.487582
0.420915
0.445752
0.487582
0.488889
0.601307
0.443137
0.420915
0.386928
0.453595
0.503268
0.606536
0.648366
0.426144
0.379085
0.418301
0.560784
0.466667
0.52549
0.501961
0.51634
0.594771
0.694118
0.538562
0.623529
0.435294
0.698039
0.396078
0.486275
0.573856
0.414379
0.477124
0.477124
0.68366
0.543791
0.484967
0.550327
0.593464
0.413072
0.49281
0.465359
0.585621
0.585621
0.619608
0.398693
0.581699
0.456209
0.593464
0.470588
0.405229
0.54902
0.471895
0.709804
0.640523
0.482353
0.571242
0.428758
0.415686
0.547712
0.69281
0.532026
0.419608
0.55817
0.45098
0.461438
0.684967
0.622222
0.427451
0.401307
0.393464
0.467974
0.303268
0.543791
0.366013
0.414379
0.428758
0.420915
0.368627
0.466667
0.366013
0.431373
0.52549
0.333333
0.541176
0.439216
0.555556
0.496732
0.511111
0.572549
0.614379
0.59085
0.458824
0.562092
0.418301
0.375163
0.449673
0.65098
0.436601
0.420915
0.535948
0.342484
0.16732
0.418301
0.184314
0.380392
0.443137
0.354248
0.44183
0.4
0.346405
0.2
0.635294
0.496732
0.486275
0.584314
0.559477
0.240523
0.594771
0.551634
0.530719
0.520261
0.648366
0.406536
0.583007
0.513725
0.603922
0.488889
0.478431
0.572549
0.422222
0.337255
0.308497
0.294118
0.345098
0.696732
0.705882
0.515033
0.47451
0.554248
0.315033
0.482353
0.67451
0.504575
0.303268
0.462745
0.460131
0.356863
0.512418
0.401307
0.335948
0.294118
0.585621
0.520261
0.515033
0.359477
0.393464
0.335948
0.352941
0.350327
0.722876
0.627451
0.326797
0.290196
0.335948
0.406536
0.628758
0.494118
0.781699
0.423529
0.28366
0.375163
0.501961
0.320261
0.423529
0.648366
0.329412
0.682353
0.520261
0.535948
0.552941
0.501961
0.414379
0.530719
0.623529
0.560784
0.487582
0.521569
0.40915
0.639216
0.486275
0.363399
0.48366
0.433987
0.398693
0.675817
0.579085
0.458824
0.556863
0.462745
0.43268
0.563399
0.423529
0.413072
0.443137
0.564706
0.511111
0.616993
0.462745
0.568627
0.56732
0.465359
0.541176
0.443137
0.273203
0.491503
0.403922
0.60915
0.478431
0.68366
0.572549
0.701961
0.588235
0.406536
0.661438
0.298039
0.435294
0.68366
0.556863
0.63268
0.447059
0.347712
0.69281
0.284967
0.401307
0.407843
0.45098
0.369935
0.362092
0.261438
0.372549
0.633987
0.487582
0.427451
0.512418
0.383007
0.422222
0.644444
0.585621
0.713725
0.35817
0.648366
0.490196
0.318954
0.384314
0.379085
0.538562
0.718954
0.294118
0.334641
0.486275
0.454902
0.458824
0.494118
0.350327
0.386928
0.445752
0.583007
0.475817
0.503268
0.585621
0.596078
0.65098
0.407843
0.572549
0.560784
0.465359
0.585621
0.428758
0.524183
0.521569
0.543791
0.505882
0.660131
0.592157
0.518954
0.486275
0.338562
0.464052
0.593464
0.572549
0.64183
0.631373
0.379085
0.363399
0.470588
0.477124
0.490196
0.449673
0.513725
0.505882
0.458824
0.664052
0.584314
0.652288
0.559477
0.653595
0.526797
0.563399
0.423529
0.381699
0.454902
0.4
0.579085
0.649673
0.628758
0.364706
0.649673
0.423529
0.407843
0.475817
0.321569
0.479739
0.568627
0.311111
0.448366
0.539869
0.576471
0.495425
0.694118
0.538562
0.611765
0.580392
0.509804
0.491503
0.330719
0.511111
0.470588
0.460131
0.534641
0.330719
0.602614
0.518954
0.543791
0.427451
0.654902
0.652288
0.491503
0.371242
0.43268
0.385621
0.397386
0.372549
0.526797
0.67451
0.515033
0.547712
0.589542
0.439216
0.495425
0.385621
0.376471
0.51634
0.284967
0.662745
0.538562
0.311111
0.423529
0.36732
0.534641
0.477124
0.368627
0.422222
0.464052
0.581699
0.508497
0.31634
0.445752
0.652288
0.460131
0.449673
0.405229
0.338562
0.54902
0.584314
0.484967
0.580392
0.394771
0.461438
0.462745
0.588235
0.709804
0.551634
0.428758
0.420915
0.581699
0.424837
0.530719
0.589542
0.419608
0.537255
0.560784
0.430065
0.513725
0.424837
0.478431
0.431373
0.520261
0.538562
0.479739
0.631373
0.566013
0.444444
0.328105
0.393464
0.334641
0.29281
0.542484
0.583007
0.419608
0.654902
0.518954
0.589542
0.614379
0.545098
0.568627
0.372549
0.4
0.318954
0.579085
0.517647
0.428758
0.416993
0.389542
0.543791
0.460131
0.20915
0.422222
0.509804
0.503268
0.36732
0.473203
0.300654
0.372549
0.54902
0.430065
0.522876
0.631373
0.818301
0.422222
0.484967
0.418301
0.426144
0.318954
0.407843
0.304575
0.598693
0.752941
0.64183
0.345098
0.222222
0.449673
0.254902
0.203922
0.45098
0.509804
0.4
0.469281
0.607843
0.473203
0.443137
0.413072
0.431373
0.45098
0.392157
0.479739
0.383007
0.436601
0.449673
0.371242
0.372549
0.509804
0.173856
0.371242
0.482353
0.456209
0.28366
0.658824
0.376471
0.487582
0.264052
0.464052
0.320261
0.36732
0.338562
0.445752
0.338562
0.499346
0.338562
0.537255
0.299346
0.586928
0.385621
0.305882
0.313725
0.494118
0.247059
0.275817
0.345098
0.389542
0.445752
0.545098
0.512418
0.533333
0.598693
0.538562
0.54902
0.563399
0.473203
0.362092
0.539869
0.368627
0.526797
0.522876
0.406536
0.615686
0.466667
0.530719
0.402614
0.376471
0.435294
0.479739
0.529412
0.528105
0.491503
0.403922
0.471895
0.388235
0.31634
0.281046
0.701961
0.563399
0.505882
0.411765
0.47451
0.556863
0.467974
0.645752
0.505882
0.534641
0.427451
0.503268
0.495425
0.460131
0.435294
0.528105
0.535948
0.43268
0.416993
0.360784
0.596078
0.286275
0.524183
0.512418
0.437908
0.245752
0.393464
0.326797
0.636601
0.28366
0.418301
0.678431
0.481046
0.624837
0.631373
0.575163
0.657516
0.619608
0.499346
0.701961
0.475817
0.356863
0.414379
0.649673
0.581699
0.466667
0.529412
0.535948
0.490196
0.393464
0.498039
0.733333
0.420915
0.517647
0.71634
0.522876
0.656209
0.550327
0.521569
0.462745
0.437908
0.517647
0.709804
0.469281
0.44183
0.481046
0.328105
0.481046
0.645752
0.375163
0.550327
0.566013
0.490196
0.415686
0.513725
0.36732
0.420915
0.509804
0.501961
0.521569
0.547712
0.628758
0.490196
0.603922
0.656209
0.470588
0.542484
0.564706
0.669281
0.602614
0.416993
0.218301
0.712418
0.291503
0.729412
0.648366
0.530719
0.347712
0.461438
0.383007
0.52549
0.43268
0.452288
0.635294
0.611765
0.439216
0.380392
0.413072
0.445752
0.560784
0.49281
0.60915
0.418301
0.543791
0.411765
0.607843
0.559477
0.743791
0.518954
0.616993
0.573856
0.50719
0.424837
0.559477
0.337255
0.498039
0.50719
0.444444
0.488889
0.529412
0.566013
0.626144
0.366013
0.396078
0.423529
0.430065
0.350327
0.449673
0.512418
0.569935
0.521569
0.601307
0.711111
0.542484
0.431373
0.643137
0.40915
0.562092
0.509804
0.509804
0.342484
0.35817
0.453595
0.524183
0.407843
0.363399
0.534641
0.324183
0.462745
0.376471
0.605229
0.338562
0.291503
0.401307
0.478431
0.511111
0.262745
0.180392
0.447059
0.168627
0.278431
0.290196
0.427451
0.332026
0.321569
0.373856
0.428758
0.173856
0.377778
0.339869
0.393464
0.34902
0.499346
0.304575
0.571242
0.418301
0.682353
0.315033
0.499346
0.419608
0.593464
0.436601
0.29281
0.372549
0.554248
0.345098
0.568627
0.332026
0.366013
0.389542
0.30719
0.338562
0.345098
0.245752
0.135948
0.444444
0.210458
0.205229
0.159477
0.181699
0.295425
0.267974
0.304575
0.150327
0.254902
0.329412
0.12549
0.366013
0.329412
0.335948
0.371242
0.490196
0.282353
0.284967
0.31634
0.332026
0.48366
0.413072
0.471895
0.383007
0.515033
0.515033
0.466667
0.279739
0.423529
0.508497
0.532026
0.664052
0.490196
0.456209
0.416993
0.465359
0.568627
0.279739
0.499346
0.406536
0.419608
0.521569
0.330719
0.431373
0.648366
0.435294
0.469281
0.470588
0.359477
0.419608
0.495425
0.311111
0.470588
0.541176
0.396078
0.615686
0.36732
0.386928
0.397386
0.473203
0.345098
0.465359
0.484967
0.415686
0.444444
0.48366
0.470588
0.522876
0.469281
0.397386
0.586928
0.543791
0.466667
0.488889
0.437908
0.562092
0.356863
0.413072
0.333333
0.466667
0.551634
0.55817
0.447059
0.320261
0.571242
0.392157
0.630065
0.364706
0.51634
0.521569
0.51634
0.471895
0.580392
0.589542
0.626144
0.584314
0.618301
0.534641
0.520261
0.515033
0.526797
0.65098
0.661438
0.602614
0.556863
0.351634
0.566013
0.445752
0.389542
0.589542
0.56732
0.333333
0.351634
0.491503
0.183007
0.486275
0.369935
0.333333
0.550327
0.416993
0.524183
0.560784
0.568627
0.426144
0.380392
0.499346
0.467974
0.503268
0.384314
0.56732
0.437908
0.431373
0.487582
0.414379
0.469281
0.566013
0.45098
0.311111
0.247059
0.384314
0.265359
0.473203
0.341176
0.428758
0.10719
0.443137
0.351634
0.592157
0.477124
0.654902
0.439216
0.44183
0.562092
0.389542
0.504575
0.363399
0.526797
0.458824
0.426144
0.352941
0.419608
0.207843
0.458824
0.407843
0.467974
0.511111
0.315033
0.132026
0.352941
0.368627
0.24183
0.428758
0.545098
0.461438
0.49281
0.603922
0.494118
0.543791
0.530719
0.613072
0.555556
0.50719
0.556863
0.426144
0.305882
0.44183
0.449673
0.427451
0.445752
0.573856
0.386928
0.383007
0.469281
0.326797
0.529412
0.488889
0.606536
0.475817
0.401307
0.407843
0.162092
0.457516
0.207843
0.342484
0.169935
0.368627
0.216993
0.245752
0.166013
0.264052
0.258824
0.235294
0.162092
0.206536
0.338562
0.311111
0.614379
0.328105
0.269281
0.273203
0.168627
0.311111
0.275817
0.269281
0.193464
0.222222
0.265359
0.460131
0.330719
0.50719
0.466667
0.196078
0.554248
0.162092
0.275817
0.227451
0.233987
0.475817
0.203922
0.54902
0.402614
0.49281
0.458824
0.437908
0.134641
0.503268
0.147712
0.423529
0.49281
0.524183
0.291503
0.658824
0.439216
0.643137
0.59085
0.542484
0.533333
0.512418
0.447059
0.445752
0.469281
0.503268
0.413072
0.484967
0.556863
0.585621
0.34902
0.503268
0.620915
0.630065
0.586928
0.456209
0.559477
0.465359
0.422222
0.649673
0.457516
0.495425
0.554248
0.635294
0.611765
0.162092
0.25098
0.312418
0.556863
0.623529
0.788235
0.547712
0.662745
0.631373
0.533333
0.554248
0.583007
0.345098
0.796078
0.640523
0.823529
0.198693
0.477124
0.364706
0.513725
0.383007
0.460131
0.437908
0.495425
0.286275
0.414379
0.294118
0.792157
0.205229
0.448366
0.500654
0.48366
0.422222
0.354248
0.347712
0.177778
0.296732
0.333333
0.355556
0.322876
0.337255
0.338562
0.322876
0.298039
0.413072
0.267974
0.470588
0.222222
0.491503
0.496732
0.284967
0.296732
0.324183
0.334641
0.286275
0.321569
0.247059
0.258824
0.329412
0.304575
0.291503
0.29281
0.318954
0.27451
0.332026
0.16732
0.279739
0.137255
0.284967
0.258824
0.309804
0.346405
0.265359
0.288889
0.333333
0.339869
0.155556
0.423529
0.294118
0.389542
0.411765
0.300654
0.337255
0.260131
0.908497
0.330719
0.356863
0.393464
0.379085
0.312418
0.262745
0.363399
0.334641
0.435294
0.419608
0.184314
0.405229
0.39085
0.366013
0.363399
0.334641
0.239216
0.258824
0.324183
0.401307
0.394771
0.192157
0.284967
0.15817
0.430065
0.333333
0.457516
0.309804
0.267974
0.329412
0.304575
0.256209
0.359477
0.360784
0.362092
0.240523
0.188235
0.249673
0.236601
0.189542
0.240523
0.193464
0.223529
0.351634
0.141176
0.288889
0.2
0.484967
0.453595
0.542484
0.669281
0.51634
0.596078
0.464052
0.279739
0.352941
0.240523
0.288889
0.129412
0.396078
0.329412
0.633987
0.206536
0.162092
0.411765
0.405229
0.253595
0.267974
0.381699
0.420915
0.44183
0.418301
0.385621
0.288889
0.346405
0.415686
0.24183
0.281046
0.424837
0.222222
0.346405
0.484967
0.303268
0.296732
0.397386
0.768627
0.243137
0.333333
0.504575
0.335948
0.50719
0.23268
0.379085
0.366013
0.252288
0.52549
0.356863
0.252288
0.287582
0.439216
0.467974
0.342484
0.372549
0.471895
0.594771
0.373856
0.584314
0.418301
0.222222
0.373856
0.303268
0.440523
0.36732
0.436601
0.605229
0.312418
0.481046
0.237908
0.261438
0.45098
0.235294
0.267974
0.488889
0.31634
0.445752
0.32549
0.398693
0.701961
0.464052
0.452288
0.658824
0.146405
0.458824
0.334641
0.488889
0.324183
0.286275
0.405229
0.534641
0.473203
0.375163
0.27451
0.288889
0.335948
0.504575
0.324183
0.49281
0.398693
0.205229
0.296732
0.686275
0.150327
0.36732
0.437908
0.339869
0.253595
0.377778
0.482353
0.256209
0.172549
0.194771
0.607843
0.405229
0.505882
0.453595
0.401307
0.422222
0.470588
0.351634
0.473203
0.401307
0.460131
0.407843
0.573856
0.439216
0.626144
0.509804
0.522876
0.550327
0.315033
0.44183
0.500654
0.373856
0.55817
0.547712
0.517647
0.596078
0.458824
0.484967
0.385621
0.471895
0.479739
0.373856
0.445752
0.433987
0.488889
0.471895
0.420915
0.509804
0.452288
0.589542
0.411765
0.305882
0.405229
0.453595
0.326797
0.449673
0.462745
0.452288
0.31634
0.36732
0.439216
0.49281
0.440523
0.383007
0.589542
0.546405
0.44183
0.477124
0.401307
0.419608
0.580392
0.351634
0.458824
0.423529
0.437908
0.233987
0.618301
0.475817
0.364706
0.394771
0.580392
0.50719
0.59085
0.509804
0.542484
0.556863
0.583007
0.322876
0.487582
0.465359
0.415686
0.508497
0.509804
0.330719
0.47451
0.55817
0.383007
0.452288
0.687582
0.305882
0.362092
0.384314
0.373856
0.32549
0.456209
0.392157
0.373856
0.520261
0.439216
0.220915
0.419608
0.484967
0.500654
0.520261
0.376471
0.495425
0.593464
0.449673
0.419608
0.458824
0.355556
0.575163
0.488889
0.581699
0.593464
0.545098
0.433987
0.687582
0.508497
0.32549
0.530719
0.528105
0.326797
0.239216
0.360784
0.216993
0.583007
0.235294
0.247059
0.453595
0.667974
0.304575
0.315033
0.32549
0.335948
0.524183
0.34902
0.249673
0.467974
0.686275
0.284967
0.862745
0.227451
0.554248
0.356863
0.509804
0.881046
0.386928
0.65098
0.35817
0.445752
0.503268
0.40915
0.462745
0.332026
0.369935
0.332026
0.313725
0.364706
0.329412
0.337255
0.279739
0.447059
0.31634
0.40915
0.350327
0.443137
0.341176
0.427451
0.329412
0.443137
0.305882
0.230065
0.315033
0.466667
0.376471
0.303268
0.415686
0.457516
0.24183
0.457516
0.512418
0.49281
0.477124
0.447059
0.322876
0.573856
0.264052
0.631373
0.247059
0.439216
0.515033
0.509804
0.342484
0.433987
0.610458
0.428758
0.555556
0.383007
0.240523
0.462745
0.401307
0.318954
0.45098
0.326797
0.326797
0.384314
0.228758
0.342484
0.347712
0.513725
0.470588
0.284967
0.313725
0.270588
0.356863
0.183007
0.334641
0.264052
0.496732
0.538562
0.51634
0.573856
0.269281
0.254902
0.541176
0.648366
0.470588
0.491503
0.563399
0.539869
0.518954
0.381699
0.487582
0.281046
0.464052
0.414379
0.393464
0.466667
0.290196
0.401307
0.279739
0.355556
0.186928
0.418301
0.383007
0.386928
0.420915
0.288889
0.452288
0.420915
0.321569
0.360784
0.243137
0.262745
0.321569
0.24183
0.388235
0.465359
0.24183
0.36732