# vtk DataFile Version 1.0
Unstructured Grid Example
ASCII

DATASET UNSTRUCTURED_GRID
POINTS 16883 float
158 365 0
478 345 0
34 282 0
457 208 0
96 130 0
226 103 0
198 141 0
0 307 0
70 328 0
213 327 0
385 246 0
310 345 0
333 238 0
427 49 0
388 18 0
363 39 0
179 53 0
102 99 0
135 83 0
195 66 0
211 102 0
275 118 0
103 154 0
104 186 0
198 133 0
31 180 0
16 210 0
10 202 0
100 279 0
3 238 0
105 313 0
144 393 0
44 409 0
69 500 0
163 334 0
198 425 0
169 334 0
206 323 0
158 291 0
254 229 0
294 380 0
428 339 0
438 396 0
323 424 0
331 450 0
315 433 0
477 386 0
498 513 0
449 339 0
458 337 0
449 272 0
447 255 0
437 224 0
470 249 0
480 216 0
411 215 0
342 235 0
301 254 0
299 140 0
295 21 0
382 199 0
395 200 0
508 94 0
476 65 0
482 169 0
74 32 0
4 25 0
55 1 0
80 34 0
76 60 0
99 66 0
100 55 0
110 69 0
116 59 0
128 50 0
108 47 0
129 4 0
167 1 0
144 30 0
166 18 0
210 16 0
237 23 0
252 23 0
254 55 0
261 50 0
246 65 0
233 59 0
133 56 0
230 58 0
214 111 0
197 124 0
178 82 0
229 103 0
246 90 0
261 117 0
263 143 0
264 152 0
277 128 0
252 145 0
209 163 0
168 153 0
79 128 0
76 130 0
150 135 0
76 105 0
104 97 0
100 70 0
0 99 0
49 71 0
35 91 0
51 100 0
68 131 0
69 151 0
9 141 0
79 203 0
70 164 0
49 220 0
96 201 0
120 185 0
149 170 0
76 257 0
80 259 0
74 278 0
56 273 0
55 222 0
12 296 0
12 318 0
4 300 0
14 298 0
51 324 0
40 340 0
57 340 0
78 353 0
130 492 0
67 387 0
96 350 0
109 318 0
132 310 0
98 311 0
206 337 0
149 330 0
174 340 0
170 350 0
217 378 0
220 484 0
256 460 0
280 475 0
238 505 0
226 451 0
226 374 0
230 354 0
253 316 0
271 315 0
252 281 0
251 264 0
228 317 0
230 314 0
222 228 0
179 172 0
247 193 0
247 260 0
257 254 0
283 231 0
262 244 0
309 227 0
288 222 0
320 236 0
336 251 0
404 231 0
381 269 0
385 314 0
413 276 0
363 325 0
357 311 0
286 320 0
326 307 0
338 422 0
313 344 0
311 337 0
326 453 0
291 469 0
300 513 0
352 497 0
364 513 0
360 449 0
354 405 0
411 351 0
423 352 0
453 434 0
485 404 0
465 442 0
445 495 0
466 498 0
462 504 0
507 509 0
504 513 0
498 487 0
497 476 0
489 411 0
490 460 0
493 400 0
500 369 0
481 374 0
458 325 0
448 387 0
447 362 0
442 261 0
439 262 0
460 257 0
480 221 0
481 233 0
510 228 0
511 222 0
462 170 0
444 200 0
454 142 0
470 102 0
470 93 0
441 96 0
410 137 0
418 89 0
407 164 0
415 170 0
432 198 0
408 171 0
362 163 0
401 180 0
384 201 0
349 192 0
330 168 0
315 159 0
332 149 0
300 130 0
337 114 0
342 141 0
388 87 0
387 95 0
405 131 0
346 62 0
364 51 0
329 41 0
326 65 0
321 74 0
292 59 0
334 39 0
323 30 0
332 32 0
353 15 0
377 35 0
383 1 0
386 25 0
422 13 0
435 27 0
424 36 0
394 61 0
425 79 0
447 51 0
497 86 0
450 37 0
468 34 0
462 26 0
442 12 0
504 6 0
45 25 0
34 15 0
14 14 0
51 25 0
56 17 0
62 19 0
49 35 0
65 26 0
44 46 0
16 46 0
14 41 0
7 30 0
4 47 0
9 46 0
5 56 0
0 63 0
10 70 0
5 67 0
54 76 0
32 85 0
36 83 0
60 75 0
30 68 0
46 50 0
81 55 0
119 42 0
87 49 0
89 59 0
92 77 0
94 79 0
145 57 0
124 72 0
148 56 0
145 50 0
148 46 0
150 50 0
144 42 0
145 35 0
135 42 0
113 34 0
110 40 0
83 36 0
85 23 0
70 28 0
87 1 0
97 34 0
100 13 0
99 5 0
134 1 0
153 19 0
170 1 0
177 19 0
178 22 0
167 27 0
158 34 0
195 29 0
190 35 0
178 27 0
198 21 0
183 20 0
187 15 0
228 4 0
206 9 0
243 12 0
249 10 0
283 3 0
282 6 0
258 13 0
274 15 0
267 14 0
252 12 0
246 21 0
245 28 0
221 39 0
276 49 0
269 44 0
278 46 0
280 50 0
293 45 0
298 40 0
274 62 0
298 72 0
242 58 0
239 72 0
239 50 0
237 78 0
237 65 0
225 76 0
222 82 0
220 48 0
207 39 0
225 39 0
207 57 0
157 44 0
173 41 0
172 59 0
194 71 0
203 80 0
172 85 0
202 92 0
203 88 0
175 89 0
193 100 0
197 107 0
198 110 0
227 106 0
209 120 0
227 111 0
204 104 0
235 100 0
219 94 0
250 106 0
245 103 0
250 93 0
266 104 0
288 89 0
298 85 0
292 121 0
296 110 0
270 116 0
252 121 0
246 117 0
236 116 0
257 130 0
223 128 0
262 127 0
274 137 0
294 136 0
278 138 0
270 147 0
298 145 0
253 149 0
253 141 0
232 147 0
226 140 0
212 144 0
221 149 0
216 159 0
218 142 0
208 141 0
207 129 0
203 122 0
184 122 0
192 123 0
168 127 0
185 155 0
184 129 0
163 133 0
156 156 0
161 151 0
127 152 0
124 154 0
113 158 0
107 154 0
102 143 0
100 148 0
92 144 0
122 141 0
142 149 0
150 124 0
163 103 0
159 111 0
139 102 0
150 99 0
143 89 0
153 88 0
88 89 0
111 85 0
106 86 0
88 104 0
133 104 0
105 115 0
88 108 0
60 103 0
36 104 0
48 102 0
82 95 0
75 87 0
57 85 0
21 87 0
11 87 0
27 86 0
8 88 0
32 90 0
34 107 0
44 123 0
24 121 0
26 108 0
48 134 0
75 119 0
86 111 0
62 139 0
84 145 0
38 150 0
38 145 0
7 134 0
34 144 0
3 157 0
29 172 0
29 163 0
0 172 0
0 175 0
26 190 0
21 192 0
43 184 0
29 185 0
35 202 0
55 182 0
45 177 0
31 177 0
80 185 0
67 168 0
83 168 0
119 177 0
121 161 0
129 165 0
111 192 0
135 201 0
121 188 0
82 204 0
77 197 0
59 198 0
86 204 0
86 217 0
57 220 0
119 214 0
125 210 0
135 221 0
95 248 0
106 227 0
98 223 0
70 236 0
60 227 0
57 232 0
57 244 0
56 254 0
46 252 0
39 244 0
32 225 0
27 211 0
5 223 0
6 213 0
10 207 0
21 232 0
4 241 0
20 248 0
23 251 0
19 286 0
14 257 0
0 268 0
22 272 0
47 287 0
48 263 0
44 331 0
62 334 0
60 320 0
36 325 0
29 289 0
14 304 0
3 342 0
0 338 0
7 342 0
0 375 0
10 380 0
8 497 0
43 397 0
11 429 0
67 363 0
61 358 0
42 353 0
14 345 0
35 335 0
83 361 0
67 345 0
71 368 0
69 414 0
71 431 0
84 499 0
110 381 0
93 452 0
114 377 0
103 370 0
87 368 0
111 355 0
131 317 0
139 332 0
129 323 0
112 324 0
107 344 0
77 333 0
77 275 0
73 309 0
88 291 0
90 293 0
93 279 0
99 298 0
102 303 0
145 323 0
144 316 0
168 315 0
182 330 0
192 315 0
210 312 0
209 344 0
218 344 0
206 340 0
202 332 0
196 347 0
155 336 0
178 375 0
173 362 0
142 367 0
142 375 0
173 392 0
160 432 0
217 431 0
188 472 0
199 406 0
198 369 0
185 352 0
178 361 0
228 472 0
227 456 0
224 467 0
234 474 0
256 498 0
245 513 0
275 472 0
270 499 0
257 478 0
286 420 0
269 418 0
268 395 0
272 335 0
298 385 0
287 328 0
264 352 0
258 331 0
239 346 0
223 328 0
219 313 0
228 322 0
241 313 0
248 326 0
256 312 0
256 301 0
283 286 0
281 288 0
297 285 0
290 283 0
295 255 0
285 282 0
270 292 0
272 265 0
256 271 0
252 294 0
280 297 0
272 299 0
213 280 0
217 276 0
219 285 0
203 298 0
199 283 0
186 279 0
192 256 0
160 266 0
163 274 0
195 251 0
225 263 0
231 268 0
246 254 0
247 250 0
255 205 0
232 243 0
202 213 0
196 179 0
151 195 0
171 165 0
147 168 0
152 175 0
182 176 0
212 165 0
228 161 0
267 186 0
257 177 0
273 215 0
264 234 0
276 234 0
277 242 0
296 237 0
292 240 0
280 249 0
288 227 0
292 216 0
295 212 0
282 181 0
304 217 0
349 214 0
344 223 0
328 227 0
332 234 0
303 228 0
386 243 0
359 253 0
372 245 0
359 227 0
362 221 0
384 215 0
398 219 0
386 221 0
401 210 0
403 216 0
410 218 0
418 224 0
421 235 0
423 243 0
421 228 0
418 257 0
397 225 0
410 231 0
389 276 0
386 268 0
396 275 0
400 274 0
419 273 0
403 274 0
421 309 0
421 326 0
418 288 0
416 332 0
393 312 0
405 330 0
344 334 0
361 334 0
350 341 0
361 276 0
371 271 0
344 268 0
336 308 0
301 259 0
304 296 0
342 312 0
329 327 0
299 333 0
299 340 0
317 350 0
314 351 0
318 367 0
343 367 0
364 341 0
359 365 0
347 385 0
365 377 0
339 383 0
338 368 0
333 380 0
310 380 0
318 427 0
302 411 0
316 394 0
320 443 0
329 447 0
306 502 0
366 493 0
370 513 0
369 459 0
349 455 0
362 389 0
362 404 0
340 430 0
404 415 0
402 410 0
389 418 0
385 435 0
384 447 0
402 500 0
420 468 0
424 469 0
425 508 0
420 457 0
424 439 0
417 420 0
417 367 0
419 399 0
416 403 0
410 366 0
407 383 0
405 368 0
380 356 0
377 345 0
382 362 0
394 364 0
424 359 0
423 349 0
416 351 0
439 367 0
437 378 0
434 356 0
455 345 0
458 378 0
459 361 0
445 402 0
456 406 0
453 397 0
445 385 0
433 389 0
425 378 0
436 461 0
432 427 0
437 475 0
439 481 0
428 510 0
440 507 0
465 458 0
451 477 0
455 460 0
445 456 0
446 429 0
453 418 0
494 422 0
470 422 0
482 438 0
483 472 0
483 484 0
495 504 0
495 461 0
501 492 0
509 456 0
510 447 0
501 425 0
509 416 0
492 409 0
498 380 0
490 404 0
477 390 0
473 393 0
465 405 0
486 369 0
480 344 0
484 359 0
487 379 0
487 364 0
496 362 0
512 363 0
510 332 0
504 337 0
503 329 0
512 323 0
511 296 0
501 287 0
471 315 0
495 287 0
498 314 0
500 329 0
483 337 0
491 341 0
456 342 0
460 334 0
463 335 0
454 340 0
451 336 0
451 342 0
433 313 0
430 285 0
445 333 0
460 284 0
471 287 0
467 323 0
471 325 0
451 261 0
453 273 0
446 252 0
434 253 0
432 276 0
431 251 0
435 221 0
430 226 0
440 248 0
442 225 0
450 228 0
452 251 0
466 228 0
460 221 0
458 235 0
459 252 0
460 254 0
467 271 0
484 264 0
485 269 0
510 236 0
510 216 0
504 209 0
506 215 0
490 215 0
495 207 0
499 191 0
503 192 0
494 189 0
485 191 0
476 190 0
496 173 0
472 179 0
497 182 0
505 180 0
510 177 0
508 179 0
485 146 0
482 159 0
504 168 0
494 141 0
489 128 0
495 116 0
474 137 0
478 96 0
471 152 0
471 160 0
477 165 0
471 171 0
461 119 0
456 123 0
460 111 0
453 106 0
469 105 0
449 97 0
431 125 0
426 113 0
423 104 0
436 137 0
440 139 0
433 139 0
437 152 0
425 166 0
442 177 0
443 148 0
458 147 0
448 148 0
453 190 0
471 193 0
463 191 0
452 198 0
449 185 0
441 188 0
436 184 0
408 199 0
399 201 0
413 203 0
417 180 0
397 155 0
423 145 0
380 151 0
395 148 0
385 158 0
370 177 0
393 192 0
393 202 0
357 186 0
362 188 0
357 183 0
338 201 0
319 194 0
318 180 0
323 172 0
310 160 0
327 170 0
341 148 0
367 163 0
368 179 0
368 170 0
333 120 0
337 142 0
358 138 0
322 137 0
317 116 0
308 128 0
306 103 0
299 97 0
310 97 0
352 97 0
353 103 0
360 107 0
373 117 0
368 113 0
368 122 0
366 129 0
368 131 0
361 132 0
395 119 0
392 134 0
402 118 0
419 116 0
393 107 0
399 100 0
375 102 0
389 66 0
372 90 0
388 59 0
387 53 0
377 53 0
380 45 0
350 73 0
352 63 0
364 48 0
370 75 0
368 86 0
345 92 0
331 56 0
339 75 0
334 58 0
324 76 0
322 83 0
308 71 0
316 51 0
302 54 0
326 54 0
329 49 0
329 53 0
332 53 0
337 36 0
345 45 0
342 38 0
335 43 0
320 37 0
299 30 0
319 12 0
302 24 0
302 28 0
319 5 0
330 14 0
349 1 0
367 9 0
352 1 0
363 15 0
363 29 0
367 40 0
355 37 0
370 27 0
374 32 0
375 26 0
368 25 0
391 13 0
371 16 0
385 12 0
453 3 0
420 11 0
411 1 0
454 8 0
460 8 0
462 13 0
438 28 0
460 38 0
445 34 0
438 16 0
430 18 0
423 21 0
400 59 0
417 41 0
426 72 0
423 73 0
407 74 0
404 94 0
442 73 0
453 86 0
432 80 0
433 67 0
436 60 0
440 57 0
462 51 0
470 61 0
462 55 0
482 55 0
478 62 0
462 69 0
473 88 0
492 83 0
486 88 0
497 81 0
512 60 0
509 47 0
[...]
CELL_DATA 33360
COLOR_SCALARS ColorSpace 1
0.503268
0.35817
0.373856
0.637908
0.388235
0.25098
0.461438
0.273203
0.545098
0.465359
0.25098
0.613072
0.466667
0.631373
0.135948
0.575163
0.500654
0.568627
0.543791
0.45098
0.413072
0.300654
0.552941
0.588235
0.488889
0.443137
0.484967
0.518954
0.636601
0.726797
0.703268
0.465359
0.444444
0.573856
0.466667
0.752941
0.373856
0.402614
0.405229
0.639216
0.286275
0.373856
0.356863
0.402614
0.205229
0.647059
0.460131
0.35817
0.542484
0.616993
0.681046
0.501961
0.470588
0.530719
0.154248
0.328105
0.318954
0.402614
0.679739
0.473203
0.588235
0.431373
0.453595
0.750327
0.546405
0.550327
0.330719
0.501961
0.469281
0.550327
0.277124
0.49281
0.440523
0.227451
0.141176
0.213072
0.264052
0.247059
0.50719
0.249673
0.298039
0.368627
0.698039
0.384314
0.31634
0.639216
0.669281
0.796078
0.512418
0.50719
0.596078
0.40915
0.673203
0.43268
0.917647
0.6
0.309804
0.619608
0.449673
0.601307
0.405229
0.360784
0.626144
0.471895
0.36732
0.517647
0.541176
0.447059
0.249673
0.904575
0.332026
0.321569
0.654902
0.360784
0.163399
0.440523
0.321569
0.352941
0.619608
0.622222
0.428758
0.711111
0.566013
0.350327
0.592157
0.475817
0.490196
0.630065
0.538562
0.328105
0.477124
0.394771
0.303268
0.462745
0.627451
0.308497
0.386928
0.44183
0.487582
0.443137
0.583007
0.426144
0.52549
0.645752
0.402614
0.452288
0.436601
0.490196
0.471895
0.445752
0.330719
0.656209
0.543791
0.318954
0.317647
0.360784
0.677124
0.539869
0.745098
0.580392
0.505882
0.467974
0.551634
0.346405
0.670588
0.423529
0.433987
0.773856
0.362092
0.508497
0.457516
0.509804
0.452288
0.491503
0.373856
0.479739
0.36732
0.373856
0.572549
0.324183
0.30719
0.351634
0.803922
0.466667
0.362092
0.635294
0.436601
0.197386
0.355556
0.388235
0.43268
0.495425
0.301961
0.243137
0.631373
0.176471
0.146405
0.356863
0.322876
0.381699
0.333333
0.281046
0.360784
0.491503
0.487582
0.658824
0.597386
0.535948
0.4
0.385621
0.532026
0.566013
0.381699
0.547712
0.452288
0.684967
0.405229
0.322876
0.460131
0.524183
0.231373
0.700654
0.554248
0.560784
0.291503
0.437908
0.571242
0.562092
0.138562
0.220915
0.260131
0.176471
0.130719
0.447059
0.376471
0.515033
0.50719
0.159477
0.193464
0.224837
0.524183
0.661438
0.482353
0.30719
0.581699
0.535948
0.482353
0.460131
0.437908
0.539869
0.465359
0.619608
0.579085
0.52549
0.596078
0.566013
0.184314
0.313725
0.496732
0.675817
0.624837
0.498039
0.694118
0.129412
0.592157
0.415686
0.168627
0.19085
0.252288
0.465359
0.547712
0.509804
0.47451
0.633987
0.152941
0.377778
0.584314
0.637908
0.606536
0.508497
0.40915
0.662745
0.611765
0.218301
0.56732
0.529412
0.579085
0.603922
0.639216
0.644444
0.543791
0.55817
0.346405
0.614379
0.623529
0.288889
0.152941
0.742484
0.295425
0.426144
0.318954
0.381699
0.618301
0.588235
0.67451
0.528105
0.210458
0.356863
0.345098
0.111111
0.175163
0.124183
0.14902
0.186928
0.433987
0.253595
0.362092
0.420915
0.228758
0.15817
0.588235
0.564706
0.162092
0.435294
0.284967
0.321569
0.193464
0.6
0.452288
0.505882
0.500654
0.905882
0.487582
0.71634
0.805229
0.56732
0.338562
0.414379
0.788235
0.48366
0.362092
0.513725
0.362092
0.656209
0.605229
0.341176
0.177778
0.777778
0.398693
0.192157
0.585621
0.326797
0.575163
0.575163
0.530719
0.512418
0.216993
0.573856
0.581699
0.398693
0.51634
0.287582
0.284967
0.49281
0.346405
0.551634
0.586928
0.572549
0.529412
0.422222
0.593464
0.626144
0.504575
0.559477
0.478431
0.458824
0.532026
0.501961
0.532026
0.559477
0.554248
0.6
0.496732
0.513725
0.501961
0.300654
0.424837
0.479739
0.556863
0.383007
0.369935
0.481046
0.500654
0.392157
0.294118
0.205229
0.484967
0.537255
0.616993
0.653595
0.521569
0.389542
0.406536
0.403922
0.456209
0.500654
0.556863
0.673203
0.405229
0.50719
0.430065
0.671895
0.518954
0.547712
0.550327
0.575163
0.573856
0.586928
0.366013
0.410458
0.35817
0.308497
0.416993
0.347712
0.482353
0.478431
0.74902
0.54902
0.743791
0.569935
0.414379
0.535948
0.512418
0.47451
0.65098
0.464052
0.588235
0.65098
0.352941
0.500654
0.545098
0.556863
0.573856
0.418301
0.239216
0.517647
0.384314
0.666667
0.779085
0.4
0.337255
0.556863
0.592157
0.592157
0.462745
0.681046
0.703268
0.571242
0.562092
0.763399
0.559477
0.295425
0.71634
0.295425
0.526797
0.786928
0.694118
0.481046
0.40915
0.577778
0.658824
0.443137
0.31634
0.694118
0.481046
0.569935
0.436601
0.622222
0.535948
0.593464
0.311111
0.504575
0.571242
0.656209
0.613072
0.684967
0.55817
0.530719
0.576471
0.435294
0.271895
0.666667
0.700654
0.529412
0.585621
0.631373
0.444444
0.495425
0.550327
0.605229
0.622222
0.419608
0.456209
0.354248
0.631373
0.564706
0.658824
0.721569
0.411765
0.662745
0.614379
0.300654
0.462745
0.718954
0.25098
0.243137
0.4
0.341176
0.504575
0.461438
0.547712
0.664052
0.431373
0.247059
0.419608
0.436601
0.458824
0.504575
0.50719
0.572549
0.522876
0.477124
0.611765
0.267974
0.577778
0.223529
0.60915
0.537255
0.530719
0.610458
0.568627
0.43268
0.32549
0.539869
0.6
0.534641
0.51634
0.477124
0.48366
0.445752
0.648366
0.533333
0.627451
0.72549
0.644444
0.546405
0.394771
0.562092
0.29281
0.696732
0.537255
0.636601
0.318954
0.691503
0.419608
0.469281
0.466667
0.481046
0.550327
0.50719
0.454902
0.605229
0.515033
0.350327
0.430065
0.530719
0.402614
0.410458
0.586928
0.308497
0.418301
0.681046
0.543791
0.473203
0.484967
0.564706
0.611765
0.573856
0.35817
0.396078
0.645752
0.454902
0.607843
0.636601
0.439216
0.47451
0.522876
0.447059
0.415686
0.423529
0.431373
0.512418
0.594771
0.173856
0.301961
0.49281
0.478431
0.677124
0.449673
0.678431
0.606536
0.298039
0.500654
0.464052
0.499346
0.290196
0.593464
0.351634
0.411765
0.532026
0.656209
0.333333
0.373856
0.541176
0.533333
0.6
0.39085
0.379085
0.755556
0.475817
0.584314
0.555556
0.546405
0.68366
0.453595
0.478431
0.797386
0.735948
0.511111
0.359477
0.624837
0.545098
0.681046
0.602614
0.623529
0.511111
0.713725
0.652288
0.658824
0.687582
0.645752
0.560784
0.75817
0.511111
0.518954
0.533333
0.666667
0.481046
0.700654
0.559477
0.584314
0.528105
0.543791
0.681046
0.728105
0.74902
0.469281
0.555556
0.313725
0.508497
0.359477
0.541176
0.332026
0.637908
0.398693
0.39085
0.605229
0.233987
0.447059
0.376471
0.440523
0.311111
0.648366
0.206536
0.452288
0.611765
0.414379
0.635294
0.484967
0.39085
0.637908
0.244444
0.214379
0.369935
0.470588
0.56732
0.500654
0.444444
0.538562
0.538562
0.71634
0.369935
0.555556
0.381699
0.622222
0.266667
0.396078
0.47451
0.414379
0.369935
0.44183
0.34902
0.343791
0.247059
0.313725
0.435294
0.300654
0.454902
0.228758
0.461438
0.345098
0.458824
0.333333
0.560784
0.372549
0.537255
0.28366
0.363399
0.579085
0.515033
0.537255
0.539869
0.444444
0.44183
0.563399
0.458824
0.613072
0.712418
0.477124
0.721569
0.439216
0.738562
0.546405
0.4
0.43268
0.243137
0.257516
0.256209
0.423529
0.28366
0.453595
0.172549
0.466667
0.303268
0.333333
0.394771
0.393464
0.335948
0.741176
0.572549
0.470588
0.551634
0.355556
0.422222
0.631373
0.627451
0.559477
0.215686
0.206536
0.166013
0.296732
0.130719
0.700654
0.193464
0.298039
0.177778
0.509804
0.227451
0.271895
0.273203
0.334641
0.359477
0.260131
0.541176
0.386928
0.294118
0.533333
0.467974
0.381699
0.522876
0.407843
0.48366
0.477124
0.36732
0.470588
0.203922
0.488889
0.257516
0.521569
0.296732
0.309804
0.351634
0.750327
0.290196
0.394771
0.337255
0.477124
0.227451
0.380392
0.45098
0.154248
0.282353
0.401307
0.19085
0.270588
0.163399
0.273203
0.431373
0.239216
0.533333
0.50719
0.542484
0.439216
0.509804
0.535948
0.47451
0.443137
0.653595
0.287582
0.657516
0.347712
0.671895
0.704575
0.679739
0.517647
0.741176
0.533333
0.379085
0.452288
0.411765
0.517647
0.602614
0.397386
0.313725
0.648366
0.321569
0.543791
0.562092
0.385621
0.443137
0.384314
0.564706
0.326797
0.63268
0.447059
0.542484
0.75817
0.281046
0.440523
0.768627
0.422222
0.592157
0.56732
0.207843
0.385621
0.54902
0.537255
0.416993
0.457516
0.512418
0.602614
0.423529
0.597386
0.593464
0.588235
0.351634
0.56732
0.457516
0.437908
0.657516
0.398693
0.405229
0.554248
0.810458
0.498039
0.490196
0.479739
0.542484
0.652288
0.415686
0.219608
0.427451
0.407843
0.611765
0.420915
0.806536
0.526797
0.533333
0.27451
0.726797
0.509804
0.586928
0.586928
0.643137
0.513725
0.542484
0.718954
0.717647
0.620915
0.583007
0.708497
0.431373
0.275817
0.48366
0.535948
0.606536
0.505882
0.69281
0.505882
0.596078
0.52549
0.571242
0.4
0.262745
0.267974
0.383007
0.298039
0.179085
0.311111
0.145098
0.532026
0.239216
0.253595
0.909804
0.196078
0.228758
0.252288
0.700654
0.194771
0.213072
0.162092
0.401307
0.324183
0.364706
0.419608
0.363399
0.304575
0.401307
0.322876
0.31634
0.156863
0.347712
0.362092
0.25098
0.405229
0.171242
0.129412
0.134641
0.141176
0.156863
0.160784
0.177778
0.233987
0.146405
0.175163
0.12549
0.652288
0.39085
0.496732
0.428758
0.363399
0.368627
0.711111
0.623529
0.488889
0.517647
0.330719
0.447059
0.444444
0.552941
0.362092
0.575163
0.654902
0.588235
0.684967
0.611765
0.49281
0.431373
0.48366
0.498039
0.640523
0.513725
0.458824
0.4
0.392157
0.513725
0.610458
0.613072
0.644444
0.494118
0.670588
0.598693
0.462745
0.49281
0.359477
0.520261
0.573856
0.532026
0.456209
0.627451
0.508497
0.49281
0.818301
0.571242
0.532026
0.579085
0.542484
0.475817
0.354248
0.593464
0.555556
0.388235
0.554248
0.504575
0.54902
0.546405
0.678431
0.542484
0.630065
0.635294
0.422222
0.320261
0.556863
0.656209
0.479739
0.25098
0.577778
0.152941
0.50719
0.580392
0.547712
0.437908
0.526797
0.529412
0.482353
0.227451
0.262745
0.635294
0.54902
0.203922
0.644444
0.563399
0.635294
0.610458
0.703268
0.586928
0.555556
0.551634
0.647059
0.614379
0.69281
0.580392
0.589542
0.712418
0.545098
0.636601
0.584314
0.682353
0.490196
0.159477
0.660131
0.456209
0.511111
0.410458
0.584314
0.541176
0.640523
0.60915
0.23268
0.538562
0.359477
0.475817
0.728105
0.128105
0.543791
0.332026
0.550327
0.494118
0.304575
0.513725
0.284967
0.298039
0.169935
0.351634
0.547712
0.15817
0.359477
0.126797
0.588235
0.627451
0.627451
0.56732
0.593464
0.14902
0.137255
0.154248
0.538562
0.626144
0.461438
0.542484
0.539869
0.505882
0.471895
0.534641
0.4
0.560784
0.562092
0.597386
0.583007
0.59085
0.742484
0.635294
0.72549
0.576471
0.54902
0.494118
0.586928
0.664052
0.581699
0.60915
0.622222
0.596078
0.664052
0.633987
0.635294
0.628758
0.589542
0.518954
0.462745
0.559477
0.513725
0.648366
0.55817
0.619608
0.559477
0.614379
0.479739
0.603922
0.658824
0.645752
0.618301
0.594771
0.639216
0.586928
0.576471
0.551634
0.559477
0.573856
0.571242
0.619608
0.611765
0.457516
0.465359
0.554248
0.806536
0.802614
0.718954
0.415686
0.321569
0.717647
0.120261
0.814379
0.486275
0.427451
0.622222
0.447059
0.857516
0.499346
0.452288
0.613072
0.219608
0.445752
0.622222
0.542484
0.424837
0.54902
0.363399
0.40915
0.402614
0.338562
0.50719
0.352941
0.211765
0.402614
0.181699
0.189542
0.118954
0.35817
0.126797
0.196078
0.301961
0.366013
0.233987
0.282353
0.260131
0.197386
0.329412
0.376471
0.222222
0.572549
0.260131
0.262745
0.300654
0.529412
0.335948
0.252288
0.658824
0.324183
0.184314
0.151634
0.23268
0.166013
0.490196
0.410458
0.115033
0.138562
0.23268
0.369935
0.138562
0.205229
0.160784
0.222222
0.128105
0.224837
0.239216
0.154248
0.156863
0.436601
0.281046
0.198693
0.312418
0.202614
0.309804
0.145098
0.147712
0.160784
0.205229
0.215686
0.235294
0.213072
0.248366
0.72549
0.176471
0.333333
0.137255
0.397386
0.303268
0.722876
0.223529
0.213072
0.168627
0.311111
0.282353
0.133333
0.172549
0.24183
0.176471
0.150327
0.126797
0.362092
0.430065
0.397386
0.179085
0.347712
0.371242
0.235294
0.278431
0.201307
0.334641
0.181699
0.27451
0.215686
0.313725
0.211765
0.326797
0.435294
0.324183
0.666667
0.615686
0.921569
0.410458
0.186928
0.197386
0.792157
0.624837
0.45098
0.264052
0.452288
0.363399
0.384314
0.220915
0.356863
0.168627
0.573856
0.594771
0.59085
0.881046
0.332026
0.415686
0.517647
0.627451
0.532026
0.437908
0.423529
0.324183
0.473203
0.554248
0.343791
0.427451
0.569935
0.443137
0.559477
0.769935
0.397386
0.435294
0.467974
0.592157
0.513725
0.4
0.703268
0.49281
0.524183
0.515033
0.415686
0.448366
0.718954
0.56732
0.284967
0.556863
0.768627
0.796078
0.405229
0.462745
0.628758
0.44183
0.509804
0.4
0.539869
0.47451
0.630065
0.486275
0.206536
0.313725
0.235294
0.718954
0.458824
0.610458
0.286275
0.91634
0.830065
0.80915
0.420915
0.666667
0.443137
0.31634
0.180392
0.376471
0.478431
0.384314
0.444444
0.611765
0.508497
0.552941
0.341176
0.279739
0.152941
0.84183
0.359477
0.164706
0.253595
0.121569
0.196078
0.273203
0.184314
0.362092
0.720261
0.35817
0.705882
0.575163
0.201307
0.699346
0.698039
0.56732
0.453595
0.373856
0.439216
0.356863
0.894118
0.572549
0.682353
0.372549
0.371242
0.49281
0.478431
0.418301
0.449673
0.503268
0.454902
0.388235
0.284967
0.518954
0.343791
0.240523
0.495425
0.337255
0.555556
0.288889
0.585621
0.407843
0.653595
0.262745
0.368627
0.48366
0.547712
0.562092
0.478431
0.618301
0.580392
0.644444
0.59085
0.29281
0.584314
0.627451
0.522876
0.305882
0.543791
0.185621
0.433987
0.350327
0.586928
0.555556
0.486275
0.271895
0.398693
0.654902
0.559477
0.495425
0.524183
0.509804
0.569935
0.50719
0.539869
0.603922
0.55817
0.520261
0.550327
0.559477
0.550327
0.562092
0.526797
0.6
0.329412
0.426144
0.494118
0.501961
0.359477
0.55817
0.562092
0.60915
0.43268
0.371242
0.287582
0.303268
0.49281
0.488889
0.430065
0.424837
0.454902
0.356863
0.396078
0.392157
0.324183
0.414379
0.418301
0.413072
0.249673
0.351634
0.313725
0.495425
0.575163
0.602614
0.610458
0.55817
0.469281
0.350327
0.562092
0.705882
0.521569
0.465359
0.520261
0.596078
0.637908
0.368627
0.437908
0.499346
0.664052
0.55817
0.559477
0.529412
0.573856
0.586928
0.350327
0.568627
0.498039
0.537255
0.470588
0.529412
0.281046
0.512418
0.439216
0.566013
0.573856
0.671895
0.568627
0.508497
0.49281
0.418301
0.487582
0.491503
0.560784
0.49281
0.559477
0.49281
0.486275
0.605229
0.563399
0.499346
0.426144
0.555556
0.530719
0.443137
0.475817
0.538562
0.422222
0.501961
0.546405
0.509804
0.526797
0.486275
0.511111
0.530719
0.534641
0.580392
0.470588
0.461438
0.500654
0.465359
0.661438
0.526797
0.495425
0.419608
0.559477
0.626144
0.430065
0.630065
0.509804
0.664052
0.700654
0.556863
0.524183
0.640523
0.597386
0.563399
0.355556
0.579085
0.475817
0.551634
0.452288
0.538562
0.594771
0.520261
0.445752
0.458824
0.51634
0.415686
0.573856
0.433987
0.487582
0.363399
0.443137
0.556863
0.471895
0.603922
0.405229
0.447059
0.479739
0.430065
0.529412
0.509804
0.569935
0.568627
0.410458
0.478431
0.423529
0.39085
0.416993
0.427451
0.648366
0.337255
0.479739
0.39085
0.541176
0.503268
0.330719
0.592157
0.448366
0.350327
0.275817
0.317647
0.444444
0.410458
0.416993
0.471895
0.734641
0.479739
0.580392
0.605229
0.657516
0.487582
0.511111
0.309804
0.566013
0.332026
0.481046
0.528105
0.486275
0.545098
0.372549
0.539869
0.401307
0.593464
0.586928
0.428758
0.511111
0.673203
0.622222
0.227451
0.56732
0.304575
0.447059
0.511111
0.515033
0.45098
0.486275
0.477124
0.419608
0.405229
0.643137
0.559477
0.605229
0.415686
0.596078
0.34902
0.465359
0.364706
0.28366
0.453595
0.51634
0.494118
0.418301
0.575163
0.375163
0.444444
0.281046
0.363399
0.403922
0.551634
0.532026
0.743791
0.40915
0.467974
0.530719
0.542484
0.505882
0.556863
0.375163
0.386928
0.426144
0.402614
0.385621
0.780392
0.584314
0.363399
0.636601
0.309804
0.45098
0.560784
0.675817
0.55817
0.618301
0.403922
0.686275
0.76732
0.695425
0.487582
0.551634
0.537255
0.664052
0.486275
0.615686
0.639216
0.457516
0.328105
0.698039
0.496732
0.39085
0.555556
0.515033
0.462745
0.397386
0.529412
0.560784
0.313725
0.660131
0.532026
0.517647
0.649673
0.598693
0.518954
0.377778
0.305882
0.538562
0.373856
0.508497
0.356863
0.296732
0.560784
0.512418
0.554248
0.486275
0.60915
0.392157
0.52549
0.350327
0.488889
0.393464
0.273203
0.662745
0.426144
0.721569
0.445752
0.50719
0.278431
0.649673
0.679739
0.666667
0.524183
0.745098
0.573856
0.606536
0.467974
0.269281
0.388235
0.585621
0.449673
0.491503
0.619608
0.718954
0.40915
0.622222
0.503268
0.585621
0.580392
0.594771
0.603922
0.607843
0.424837
0.490196
0.59085
0.698039
0.431373
0.262745
0.579085
0.499346
0.555556
0.551634
0.602614
0.564706
0.611765
0.626144
0.547712
0.296732
0.513725
0.522876
0.653595
0.648366
0.529412
0.586928
0.431373
0.456209
0.585621
0.50719
0.406536
0.469281
0.526797
0.569935
0.508497
0.573856
0.545098
0.521569
0.583007
0.496732
0.918954
0.14902
0.91634
0.815686
0.65098
0.635294
0.690196
0.618301
0.571242
0.741176
0.52549
0.552941
0.779085
0.513725
0.704575
0.618301
0.48366
0.623529
0.783007
0.635294
0.380392
0.351634
0.55817
0.392157
0.890196
0.873203
0.554248
0.656209
0.453595
0.903268
0.647059
0.786928
0.722876
0.603922
0.566013
0.74902
0.704575
0.563399
0.386928
0.518954
0.350327
0.576471
0.418301
0.537255
0.624837
0.475817
0.598693
0.660131
0.665359
0.639216
0.624837
0.711111
0.577778
0.584314
0.517647
0.335948
0.572549
0.47451
0.709804
0.478431
0.439216
0.481046
0.431373
0.420915
0.347712
0.584314
0.431373
0.44183
0.471895
0.678431
0.722876
0.775163
0.603922
0.475817
0.499346
0.718954
0.618301
0.573856
0.64183
0.55817
0.65098
0.452288
0.598693
0.607843
0.67451
0.661438
0.49281
0.569935
0.657516
0.593464
0.343791
0.520261
0.619608
0.500654
0.636601
0.513725
0.649673
0.559477
0.624837
0.687582
0.448366
0.712418
0.573856
0.594771
0.592157
0.568627
0.447059
0.54902
0.392157
0.60915
0.427451
0.678431
0.666667
0.633987
0.478431
0.556863
0.85098
0.428758
0.596078
0.577778
0.505882
0.479739
0.467974
0.490196
0.555556
0.541176
0.524183
0.479739
0.603922
0.273203
0.541176
0.513725
0.59085
0.691503
0.48366
0.377778
0.564706
0.589542
0.598693
0.631373
0.607843
0.452288
0.566013
0.742484
0.615686
0.708497
0.414379
0.643137
0.694118
0.669281
0.504575
0.786928
0.653595
0.566013
0.615686
0.398693
0.320261
0.635294
0.576471
0.678431
0.529412
0.752941
0.597386
0.67451
0.56732
0.722876
0.597386
0.56732
0.427451
0.614379
0.364706
0.501961
0.605229
0.559477
0.556863
0.537255
0.572549
0.490196
0.687582
0.427451
0.688889
0.728105
0.588235
0.521569
0.490196
0.554248
0.639216
0.312418
0.487582
0.469281
0.556863
0.498039
0.547712
0.511111
0.44183
0.440523
0.286275
0.443137
0.610458
0.607843
0.486275
0.321569
0.454902
0.443137
0.4
0.59085
0.352941
0.521569
0.603922
0.473203
0.496732
0.457516
0.586928
0.426144
0.564706
0.521569
0.566013
0.520261
0.478431
0.437908
0.712418
0.54902
0.688889
0.546405
0.675817
0.539869
0.521569
0.335948
0.750327
0.431373
0.427451
0.439216
0.662745
0.30719
0.564706
0.566013
0.585621
0.396078
0.647059
0.379085
0.448366
0.454902
0.513725
0.465359
0.602614
0.645752
0.481046
0.426144
0.411765
0.60915
0.554248
0.414379
0.48366
0.559477
0.735948
0.448366
0.645752
0.337255
0.35817
0.401307
0.257516
0.517647
0.28366
0.28366
0.290196
0.253595
0.301961
0.628758
0.386928
0.572549
0.224837
0.457516
0.636601
0.602614
0.328105
0.247059
0.324183
0.267974
0.410458
0.240523
0.411765
0.345098
0.80915
0.364706
0.363399
0.431373
0.379085
0.352941
0.503268
0.535948
0.521569
0.56732
0.454902
0.520261
0.568627
0.59085
0.457516
0.402614
0.68366
0.443137
0.415686
0.30719
0.718954
0.45098
0.543791
0.517647
0.616993
0.372549
0.624837
0.424837
0.428758
0.620915
0.555556
0.624837
0.431373
0.56732
0.443137
0.500654
0.571242
0.541176
0.793464
0.541176
0.49281
0.406536
0.524183
0.337255
0.54902
0.71634
0.479739
0.318954
0.481046
0.530719
0.243137
0.592157
0.423529
0.454902
0.579085
0.235294
0.454902
0.449673
0.594771
0.328105
0.496732
0.477124
0.681046
0.63268
0.538562
0.521569
0.603922
0.286275
0.418301
0.51634
0.631373
0.55817
0.626144
0.622222
0.43268
0.606536
0.457516
0.34902
0.240523
0.588235
0.532026
0.500654
0.645752
0.551634
0.465359
0.49281
0.602614
0.635294
0.550327
0.703268
0.564706
0.60915
0.363399
0.618301
0.517647
0.482353
0.49281
0.532026
0.413072
0.47451
0.414379
0.343791
0.520261
0.65098
0.547712
0.488889
0.555556
0.541176
0.636601
0.440523
0.68366
0.286275
0.364706
0.461438
0.494118
0.678431
0.517647
0.64183
0.699346
0.473203
0.462745
0.677124
0.649673
0.653595
0.605229
0.581699
0.545098
0.462745
0.537255
0.633987
0.40915
0.566013
0.594771
0.639216
0.454902
0.481046
0.594771
0.794771
0.74902
0.545098
0.635294
0.477124
0.418301
0.486275
0.499346
0.637908
0.67451
0.796078
0.775163
0.8
0.586928
0.596078
0.580392
0.563399
0.586928
0.462745
0.547712