# vtk DataFile Version 1.0
Unstructured Grid Example
ASCII

DATASET UNSTRUCTURED_GRID
POINTS 11522 float
123 63 0
276 27 0
248 98 0
70 192 0
256 305 0
283 274 0
332 339 0
350 222 0
404 140 0
372 120 0
471 131 0
68 25 0
170 14 0
273 31 0
333 1 0
229 115 0
289 109 0
224 106 0
214 121 0
26 127 0
80 131 0
81 150 0
60 250 0
93 330 0
333 476 0
369 242 0
265 229 0
174 151 0
454 259 0
458 266 0
460 275 0
428 399 0
480 381 0
481 373 0
512 354 0
509 338 0
489 250 0
469 188 0
452 248 0
441 259 0
400 58 0
441 101 0
443 93 0
473 58 0
490 35 0
29 26 0
0 17 0
8 48 0
17 51 0
83 42 0
57 51 0
89 19 0
48 9 0
184 25 0
131 14 0
195 29 0
261 20 0
150 53 0
183 57 0
141 29 0
101 31 0
131 90 0
177 70 0
220 59 0
267 105 0
167 117 0
213 111 0
162 108 0
154 110 0
113 116 0
101 117 0
107 113 0
88 107 0
11 73 0
56 69 0
71 93 0
76 106 0
11 112 0
20 150 0
23 143 0
40 132 0
73 154 0
66 199 0
89 214 0
64 175 0
44 203 0
13 229 0
16 226 0
33 328 0
0 487 0
60 400 0
54 410 0
34 239 0
42 235 0
86 225 0
188 316 0
246 298 0
196 324 0
108 371 0
248 340 0
263 310 0
270 308 0
260 287 0
148 190 0
265 268 0
112 213 0
104 244 0
103 158 0
171 119 0
248 137 0
254 146 0
250 124 0
391 234 0
320 231 0
416 236 0
429 236 0
338 317 0
426 369 0
334 285 0
321 331 0
327 430 0
343 410 0
351 506 0
377 506 0
390 490 0
403 513 0
427 452 0
424 398 0
379 398 0
446 382 0
484 367 0
432 445 0
459 513 0
485 468 0
510 459 0
486 390 0
487 332 0
461 300 0
494 289 0
452 283 0
440 276 0
488 266 0
476 268 0
488 263 0
504 253 0
507 245 0
507 171 0
480 182 0
482 164 0
497 162 0
463 142 0
463 125 0
479 186 0
458 191 0
399 212 0
396 208 0
369 226 0
319 210 0
381 204 0
368 120 0
410 175 0
451 119 0
453 129 0
343 90 0
349 91 0
334 89 0
281 91 0
291 76 0
324 22 0
330 43 0
331 36 0
361 59 0
421 40 0
455 74 0
375 89 0
499 82 0
490 85 0
495 41 0
458 39 0
456 16 0
8 10 0
29 17 0
37 11 0
69 5 0
69 35 0
88 27 0
51 27 0
35 33 0
40 45 0
26 36 0
0 50 0
9 53 0
86 52 0
64 51 0
67 49 0
90 48 0
103 34 0
108 42 0
93 47 0
107 52 0
135 56 0
153 39 0
162 36 0
143 31 0
146 23 0
164 30 0
143 24 0
127 27 0
115 2 0
111 7 0
115 12 0
151 1 0
160 21 0
179 6 0
176 1 0
194 7 0
186 17 0
201 22 0
215 23 0
230 19 0
200 14 0
244 5 0
234 5 0
259 4 0
300 8 0
272 14 0
295 21 0
266 8 0
261 12 0
248 19 0
238 36 0
237 32 0
246 27 0
280 31 0
232 48 0
304 52 0
229 54 0
227 47 0
215 43 0
200 38 0
217 35 0
205 24 0
178 26 0
167 26 0
184 37 0
192 38 0
182 43 0
145 61 0
145 66 0
140 69 0
157 79 0
164 75 0
180 79 0
157 68 0
161 59 0
213 71 0
224 60 0
227 60 0
304 67 0
269 82 0
283 85 0
234 84 0
227 78 0
183 72 0
187 113 0
193 111 0
237 111 0
242 99 0
247 119 0
233 121 0
228 123 0
199 122 0
164 126 0
176 136 0
180 115 0
164 91 0
162 97 0
151 95 0
147 102 0
155 106 0
162 130 0
102 129 0
102 126 0
97 131 0
84 128 0
96 117 0
89 95 0
114 119 0
120 120 0
132 86 0
119 91 0
117 79 0
110 73 0
89 57 0
102 73 0
100 77 0
107 80 0
93 78 0
77 79 0
61 98 0
81 66 0
48 57 0
11 59 0
5 57 0
21 87 0
14 88 0
4 102 0
41 105 0
66 109 0
69 104 0
84 119 0
80 117 0
27 118 0
22 119 0
10 134 0
10 149 0
0 148 0
26 157 0
28 160 0
55 190 0
32 176 0
38 173 0
33 164 0
85 169 0
121 162 0
123 167 0
135 154 0
125 182 0
124 196 0
120 187 0
55 196 0
64 210 0
59 220 0
84 206 0
97 198 0
91 222 0
79 245 0
65 231 0
58 232 0
49 247 0
45 234 0
56 229 0
47 205 0
15 232 0
0 227 0
24 256 0
4 257 0
26 259 0
12 260 0
12 263 0
23 270 0
41 273 0
43 307 0
21 283 0
6 294 0
3 299 0
4 315 0
3 340 0
5 343 0
0 402 0
41 350 0
32 347 0
18 338 0
19 318 0
17 322 0
55 312 0
51 340 0
49 345 0
60 368 0
66 362 0
60 361 0
135 321 0
88 318 0
136 303 0
91 291 0
79 306 0
45 299 0
51 267 0
66 262 0
76 270 0
83 262 0
78 282 0
194 312 0
207 309 0
217 300 0
223 306 0
208 321 0
222 321 0
201 325 0
158 319 0
144 382 0
168 328 0
178 394 0
204 407 0
209 434 0
214 400 0
229 348 0
216 333 0
231 333 0
241 327 0
248 310 0
238 340 0
238 469 0
268 475 0
305 425 0
290 418 0
299 348 0
289 304 0
275 299 0
248 301 0
235 308 0
276 295 0
242 295 0
280 298 0
297 296 0
302 292 0
292 259 0
297 255 0
292 254 0
288 246 0
280 267 0
280 281 0
269 287 0
271 292 0
252 282 0
239 274 0
230 274 0
170 283 0
213 265 0
166 268 0
218 273 0
249 249 0
267 260 0
195 159 0
186 242 0
183 163 0
149 175 0
138 157 0
216 138 0
218 142 0
233 145 0
274 174 0
277 153 0
271 224 0
255 241 0
286 217 0
291 238 0
279 207 0
293 198 0
285 159 0
313 225 0
347 228 0
306 240 0
326 241 0
390 237 0
351 232 0
367 229 0
363 209 0
403 205 0
401 215 0
411 215 0
424 205 0
419 230 0
436 228 0
418 242 0
405 221 0
396 250 0
390 250 0
399 252 0
425 252 0
420 272 0
424 261 0
407 257 0
392 271 0
379 268 0
387 271 0
378 262 0
376 244 0
321 255 0
363 249 0
319 258 0
365 262 0
309 263 0
310 324 0
311 337 0
340 323 0
347 318 0
370 370 0
336 341 0
315 366 0
307 356 0
355 380 0
354 409 0
308 430 0
338 459 0
366 498 0
376 472 0
376 412 0
361 377 0
379 386 0
398 402 0
403 371 0
385 413 0
380 485 0
416 406 0
421 478 0
433 402 0
413 379 0
418 356 0
420 354 0
410 355 0
391 353 0
405 351 0
382 276 0
408 273 0
421 283 0
435 347 0
447 349 0
449 329 0
468 317 0
469 356 0
470 364 0
469 360 0
465 387 0
457 369 0
442 422 0
462 464 0
438 504 0
463 513 0
470 476 0
468 485 0
464 458 0
467 426 0
470 410 0
475 419 0
472 449 0
477 472 0
483 498 0
500 420 0
492 430 0
487 396 0
503 392 0
481 361 0
484 342 0
474 361 0
473 353 0
478 321 0
476 332 0
494 323 0
500 318 0
512 322 0
508 310 0
496 301 0
507 297 0
499 286 0
487 284 0
487 279 0
488 303 0
485 311 0
474 308 0
479 305 0
472 300 0
466 306 0
437 269 0
444 276 0
451 269 0
463 274 0
468 277 0
479 228 0
489 244 0
447 255 0
444 246 0
447 212 0
442 208 0
450 219 0
480 215 0
490 212 0
489 256 0
492 258 0
491 266 0
495 268 0
497 238 0
505 232 0
511 222 0
509 212 0
496 194 0
509 188 0
486 186 0
467 184 0
474 169 0
470 167 0
491 182 0
510 154 0
499 120 0
512 149 0
486 116 0
505 108 0
481 100 0
485 107 0
475 139 0
483 152 0
466 163 0
460 165 0
451 149 0
450 146 0
430 103 0
437 117 0
422 123 0
427 142 0
439 166 0
422 177 0
455 178 0
458 169 0
460 188 0
463 194 0
456 200 0
455 197 0
440 192 0
393 200 0
399 182 0
413 170 0
421 150 0
373 180 0
381 163 0
390 202 0
368 204 0
355 200 0
350 189 0
322 184 0
313 202 0
329 170 0
315 159 0
359 158 0
360 176 0
363 151 0
360 143 0
370 147 0
355 147 0
315 133 0
348 104 0
345 114 0
354 116 0
365 128 0
398 119 0
374 113 0
382 123 0
380 138 0
399 129 0
414 120 0
407 115 0
419 102 0
421 100 0
410 98 0
403 92 0
404 89 0
410 64 0
374 36 0
400 38 0
378 43 0
384 76 0
341 75 0
371 93 0
329 80 0
307 98 0
314 50 0
319 52 0
334 36 0
350 67 0
352 74 0
334 28 0
318 25 0
316 27 0
313 15 0
316 8 0
306 6 0
322 4 0
325 11 0
336 13 0
338 5 0
336 22 0
354 32 0
404 27 0
363 31 0
400 15 0
386 14 0
369 1 0
424 3 0
420 4 0
433 13 0
438 5 0
432 34 0
422 34 0
415 46 0
414 62 0
423 69 0
418 67 0
421 88 0
428 97 0
435 95 0
444 86 0
440 83 0
440 68 0
431 82 0
451 69 0
459 62 0
455 88 0
463 91 0
504 78 0
492 94 0
501 67 0
478 55 0
481 47 0
501 53 0
469 50 0
466 52 0
461 35 0
451 28 0
479 14 0
481 18 0
501 30 0
12 10 0
2 8 0
5 10 0
18 15 0
30 13 0
26 10 0
28 7 0
43 2 0
47 6 0
54 1 0
59 5 0
69 1 0
71 16 0
70 8 0
59 11 0
55 14 0
28 23 0
40 21 0
51 21 0
61 22 0
62 30 0
71 25 0
39 24 0
36 30 0
22 25 0
16 31 0
17 19 0
15 16 0
2 20 0
10 19 0
15 21 0
9 27 0
7 30 0
8 45 0
7 37 0
12 44 0
13 38 0
22 47 0
14 48 0
7 51 0
3 50 0
3 59 0
12 54 0
8 62 0
5 62 0
17 57 0
14 63 0
22 56 0
19 54 0
15 54 0
37 47 0
44 53 0
29 54 0
35 62 0
67 54 0
72 61 0
46 49 0
51 47 0
55 46 0
58 43 0
33 43 0
29 39 0
31 35 0
37 38 0
59 37 0
66 36 0
63 38 0
77 35 0
80 33 0
81 30 0
95 24 0
86 42 0
82 36 0
81 40 0
79 37 0
77 44 0
80 44 0
74 51 0
75 54 0
82 62 0
85 56 0
89 51 0
83 50 0
80 50 0
108 55 0
101 57 0
118 58 0
113 59 0
134 61 0
132 63 0
129 51 0
120 46 0
106 45 0
128 39 0
105 40 0
103 43 0
106 34 0
98 33 0
110 30 0
115 39 0
122 31 0
128 17 0
119 22 0
125 17 0
124 14 0
116 17 0
113 18 0
113 21 0
111 23 0
100 19 0
105 15 0
92 19 0
75 19 0
81 12 0
84 11 0
96 13 0
100 12 0
103 13 0
98 10 0
99 4 0
87 6 0
84 7 0
83 4 0
84 1 0
97 1 0
101 2 0
121 2 0
104 4 0
103 7 0
113 10 0
129 8 0
130 11 0
125 8 0
135 5 0
128 5 0
137 9 0
151 7 0
165 7 0
165 4 0
165 11 0
168 12 0
142 10 0
138 12 0
141 18 0
139 16 0
137 23 0
149 24 0
158 23 0
164 24 0
164 20 0
149 16 0
170 21 0
194 14 0
193 21 0
196 25 0
207 22 0
201 18 0
215 16 0
222 14 0
199 9 0
208 7 0
188 13 0
178 13 0
197 1 0
187 3 0
198 6 0
202 7 0
215 5 0
231 1 0
222 1 0
222 6 0
236 10 0
259 8 0
248 1 0
242 1 0
245 1 0
272 1 0
266 5 0
281 1 0
298 2 0
289 6 0
297 6 0
289 9 0
286 9 0
269 9 0
280 12 0
280 15 0
287 16 0
297 11 0
297 24 0
290 18 0
284 24 0
282 20 0
274 18 0
270 21 0
257 18 0
271 17 0
232 16 0
251 17 0
242 22 0
227 22 0
250 24 0
205 27 0
201 34 0
210 37 0
210 44 0
221 40 0
219 43 0
215 31 0
215 26 0
237 25 0
256 31 0
256 27 0
283 29 0
271 42 0
291 32 0
258 44 0
235 37 0
233 42 0
239 48 0
235 49 0
242 50 0
288 48 0
298 54 0
298 59 0
294 57 0
225 56 0
215 63 0
209 54 0
204 53 0
206 46 0
203 45 0
203 48 0
200 51 0
204 63 0
202 58 0
193 61 0
186 54 0
184 51 0
181 59 0
190 46 0
171 41 0
194 41 0
195 50 0
190 40 0
192 35 0
199 32 0
190 29 0
183 29 0
189 32 0
177 32 0
171 38 0
189 36 0
156 39 0
164 42 0
159 34 0
156 26 0
153 31 0
141 33 0
148 36 0
137 43 0
138 57 0
146 44 0
156 45 0
169 49 0
154 61 0
153 58 0
148 63 0
141 62 0
148 60 0
131 76 0
149 73 0
151 66 0
152 72 0
160 78 0
163 78 0
152 77 0
134 78 0
140 90 0
135 99 0
133 104 0
141 105 0
143 100 0
151 103 0
151 84 0
143 81 0
172 89 0
178 88 0
170 91 0
182 105 0
189 98 0
208 104 0
182 92 0
201 91 0
176 82 0
183 86 0
173 83 0
169 77 0
167 74 0
168 66 0
171 68 0
175 68 0
198 66 0
217 68 0
226 67 0
224 72 0
222 81 0
239 71 0
236 74 0
235 71 0
234 64 0
244 66 0
254 67 0
263 70 0
277 64 0
294 80 0
283 77 0
282 72 0
253 78 0
271 71 0
252 96 0
254 92 0
285 91 0
289 82 0
293 105 0
289 96 0
282 103 0
256 98 0
241 92 0
237 96 0
233 91 0
240 89 0
230 91 0
212 95 0
215 100 0
228 100 0
212 101 0
231 108 0
238 107 0
235 114 0
231 118 0
240 116 0
239 113 0
245 111 0
243 108 0
275 109 0
248 111 0
279 108 0
294 112 0
293 117 0
298 113 0
288 117 0
278 112 0
257 117 0
275 118 0
274 122 0
279 120 0
[...]
CELL_DATA 22710
COLOR_SCALARS ColorSpace 1
0.554248
0.517647
0.532026
0.486275
0.581699
0.360784
0.457516
0.318954
0.462745
0.419608
0.47451
0.245752
0.216993
0.498039
0.564706
0.373856
0.51634
0.511111
0.477124
0.258824
0.52549
0.537255
0.513725
0.601307
0.52549
0.589542
0.630065
0.257516
0.346405
0.270588
0.63268
0.410458
0.322876
0.375163
0.362092
0.59085
0.426144
0.593464
0.520261
0.576471
0.656209
0.347712
0.712418
0.415686
0.491503
0.449673
0.577778
0.686275
0.169935
0.720261
0.249673
0.332026
0.40915
0.43268
0.67451
0.622222
0.48366
0.443137
0.380392
0.50719
0.43268
0.524183
0.566013
0.40915
0.520261
0.537255
0.424837
0.490196
0.402614
0.375163
0.369935
0.317647
0.396078
0.462745
0.433987
0.698039
0.499346
0.596078
0.465359
0.631373
0.627451
0.679739
0.389542
0.452288
0.644444
0.607843
0.356863
0.673203
0.405229
0.475817
0.559477
0.239216
0.681046
0.529412
0.491503
0.532026
0.381699
0.59085
0.555556
0.354248
0.437908
0.550327
0.488889
0.477124
0.504575
0.384314
0.687582
0.551634
0.500654
0.701961
0.456209
0.477124
0.562092
0.329412
0.528105
0.556863
0.486275
0.335948
0.313725
0.265359
0.592157
0.547712
0.505882
0.275817
0.326797
0.44183
0.343791
0.329412
0.49281
0.332026
0.427451
0.448366
0.420915
0.535948
0.526797
0.596078
0.381699
0.511111
0.639216
0.656209
0.660131
0.528105
0.637908
0.630065
0.6
0.524183
0.47451
0.596078
0.509804
0.499346
0.436601
0.6
0.503268
0.315033
0.449673
0.665359
0.465359
0.377778
0.24183
0.705882
0.379085
0.491503
0.414379
0.369935
0.427451
0.490196
0.498039
0.486275
0.414379
0.647059
0.518954
0.68366
0.275817
0.586928
0.275817
0.552941
0.636601
0.50719
0.602614
0.410458
0.383007
0.32549
0.35817
0.453595
0.155556
0.172549
0.481046
0.581699
0.530719
0.50719
0.539869
0.32549
0.542484
0.465359
0.577778
0.248366
0.277124
0.150327
0.262745
0.152941
0.181699
0.257516
0.414379
0.135948
0.162092
0.142484
0.60915
0.762092
0.401307
0.488889
0.245752
0.337255
0.257516
0.363399
0.47451
0.231373
0.60915
0.473203
0.396078
0.389542
0.218301
0.631373
0.470588
0.518954
0.569935
0.334641
0.371242
0.356863
0.440523
0.394771
0.126797
0.589542
0.359477
0.713725
0.60915
0.339869
0.260131
0.496732
0.301961
0.51634
0.611765
0.501961
0.660131
0.56732
0.473203
0.473203
0.284967
0.517647
0.458824
0.661438
0.627451
0.312418
0.537255
0.610458
0.462745
0.380392
0.482353
0.51634
0.55817
0.45098
0.342484
0.458824
0.277124
0.296732
0.431373
0.579085
0.624837
0.410458
0.518954
0.614379
0.350327
0.539869
0.47451
0.448366
0.43268
0.545098
0.43268
0.521569
0.318954
0.452288
0.386928
0.526797
0.670588
0.68366
0.649673
0.43268
0.597386
0.362092
0.597386
0.287582
0.603922
0.389542
0.551634
0.481046
0.588235
0.521569
0.481046
0.639216
0.380392
0.597386
0.477124
0.220915
0.585621
0.435294
0.647059
0.48366
0.535948
0.589542
0.670588
0.687582
0.34902
0.566013
0.198693
0.388235
0.669281
0.413072
0.317647
0.515033
0.662745
0.766013
0.445752
0.571242
0.383007
0.345098
0.396078
0.403922
0.615686
0.644444
0.475817
0.461438
0.746405
0.667974
0.388235
0.498039
0.500654
0.414379
0.623529
0.45098
0.416993
0.711111
0.372549
0.547712
0.411765
0.56732
0.606536
0.355556
0.414379
0.244444
0.515033
0.479739
0.420915
0.206536
0.496732
0.428758
0.478431
0.550327
0.464052
0.588235
0.610458
0.385621
0.501961
0.482353
0.596078
0.547712
0.517647
0.456209
0.547712
0.508497
0.551634
0.614379
0.724183
0.484967
0.606536
0.682353
0.563399
0.407843
0.615686
0.513725
0.491503
0.615686
0.326797
0.343791
0.51634
0.624837
0.385621
0.572549
0.568627
0.464052
0.494118
0.389542
0.440523
0.443137
0.411765
0.60915
0.678431
0.521569
0.589542
0.552941
0.447059
0.477124
0.312418
0.648366
0.469281
0.372549
0.428758
0.452288
0.562092
0.275817
0.712418
0.466667
0.503268
0.690196
0.333333
0.326797
0.584314
0.337255
0.575163
0.575163
0.571242
0.377778
0.575163
0.449673
0.762092
0.756863
0.597386
0.447059
0.586928
0.461438
0.537255
0.631373
0.661438
0.688889
0.503268
0.773856
0.665359
0.51634
0.690196
0.65098
0.427451
0.810458
0.564706
0.594771
0.580392
0.601307
0.528105
0.431373
0.580392
0.20915
0.461438
0.279739
0.556863
0.330719
0.637908
0.63268
0.637908
0.541176
0.454902
0.54902
0.359477
0.69281
0.620915
0.577778
0.700654
0.687582
0.513725
0.616993
0.389542
0.562092
0.449673
0.392157
0.501961
0.571242
0.584314
0.313725
0.665359
0.491503
0.375163
0.388235
0.373856
0.678431
0.511111
0.457516
0.375163
0.466667
0.533333
0.433987
0.467974
0.562092
0.369935
0.589542
0.401307
0.554248
0.47451
0.290196
0.380392
0.699346
0.623529
0.352941
0.713725
0.665359
0.673203
0.426144
0.607843
0.469281
0.481046
0.449673
0.677124
0.413072
0.678431
0.628758
0.388235
0.326797
0.454902
0.444444
0.298039
0.30719
0.335948
0.364706
0.397386
0.398693
0.311111
0.318954
0.445752
0.635294
0.19085
0.254902
0.342484
0.435294
0.430065
0.613072
0.630065
0.597386
0.394771
0.631373
0.581699
0.594771
0.479739
0.406536
0.413072
0.47451
0.670588
0.318954
0.588235
0.528105
0.287582
0.32549
0.249673
0.543791
0.589542
0.478431
0.464052
0.695425
0.428758
0.662745
0.164706
0.419608
0.278431
0.593464
0.454902
0.484967
0.653595
0.649673
0.486275
0.694118
0.4
0.628758
0.520261
0.379085
0.47451
0.490196
0.520261
0.413072
0.511111
0.657516
0.422222
0.505882
0.345098
0.59085
0.539869
0.610458
0.586928
0.630065
0.806536
0.359477
0.299346
0.627451
0.594771
0.528105
0.469281
0.633987
0.636601
0.486275
0.581699
0.479739
0.419608
0.59085
0.496732
0.381699
0.598693
0.603922
0.575163
0.559477
0.426144
0.504575
0.59085
0.547712
0.724183
0.535948
0.666667
0.630065
0.696732
0.556863
0.551634
0.534641
0.328105
0.656209
0.550327
0.572549
0.545098
0.445752
0.423529
0.333333
0.317647
0.216993
0.428758
0.298039
0.403922
0.317647
0.662745
0.218301
0.481046
0.29281
0.35817
0.169935
0.657516
0.213072
0.328105
0.244444
0.31634
0.386928
0.376471
0.469281
0.23268
0.372549
0.308497
0.19085
0.152941
0.343791
0.454902
0.142484
0.384314
0.337255
0.376471
0.335948
0.605229
0.484967
0.301961
0.380392
0.500654
0.484967
0.542484
0.439216
0.376471
0.532026
0.481046
0.439216
0.603922
0.449673
0.611765
0.456209
0.486275
0.513725
0.500654
0.443137
0.422222
0.529412
0.551634
0.631373
0.649673
0.522876
0.552941
0.597386
0.511111
0.496732
0.580392
0.500654
0.454902
0.196078
0.541176
0.699346
0.511111
0.513725
0.560784
0.535948
0.484967
0.477124
0.266667
0.581699
0.393464
0.515033
0.482353
0.627451
0.379085
0.593464
0.322876
0.522876
0.496732
0.342484
0.44183
0.616993
0.173856
0.135948
0.530719
0.133333
0.488889
0.134641
0.398693
0.380392
0.555556
0.317647
0.379085
0.265359
0.330719
0.397386
0.383007
0.495425
0.415686
0.403922
0.545098
0.60915
0.504575
0.40915
0.628758
0.588235
0.603922
0.371242
0.335948
0.389542
0.610458
0.129412
0.538562
0.258824
0.427451
0.318954
0.569935
0.413072
0.614379
0.458824
0.486275
0.491503
0.547712
0.551634
0.422222
0.443137
0.508497
0.55817
0.533333
0.615686
0.615686
0.679739
0.452288
0.471895
0.517647
0.498039
0.436601
0.499346
0.581699
0.647059
0.669281
0.569935
0.511111
0.611765
0.337255
0.501961
0.534641
0.428758
0.543791
0.678431
0.619608
0.671895
0.671895
0.581699
0.498039
0.59085
0.396078
0.482353
0.785621
0.154248
0.222222
0.267974
0.24183
0.295425
0.487582
0.505882
0.504575
0.332026
0.245752
0.206536
0.15817
0.233987
0.362092
0.305882
0.27451
0.394771
0.366013
0.368627
0.278431
0.305882
0.343791
0.278431
0.231373
0.303268
0.388235
0.266667
0.207843
0.36732
0.185621
0.23268
0.25098
0.193464
0.210458
0.308497
0.294118
0.171242
0.254902
0.352941
0.202614
0.150327
0.162092
0.224837
0.237908
0.14902
0.173856
0.142484
0.218301
0.416993
0.215686
0.31634
0.179085
0.264052
0.30719
0.15817
0.445752
0.40915
0.384314
0.321569
0.264052
0.405229
0.321569
0.346405
0.284967
0.269281
0.337255
0.270588
0.282353
0.346405
0.308497
0.420915
0.623529
0.350327
0.282353
0.163399
0.138562
0.388235
0.300654
0.338562
0.359477
0.36732
0.394771
0.797386
0.359477
0.639216
0.760784
0.415686
0.138562
0.470588
0.545098
0.309804
0.419608
0.899346
0.321569
0.484967
0.416993
0.359477
0.163399
0.465359
0.543791
0.643137
0.186928
0.435294
0.543791
0.60915
0.424837
0.305882
0.547712
0.426144
0.481046
0.479739
0.491503
0.592157
0.724183
0.529412
0.585621
0.282353
0.518954
0.718954
0.422222
0.55817
0.717647
0.499346
0.397386
0.388235
0.562092
0.684967
0.35817
0.551634
0.580392
0.546405
0.647059
0.439216
0.35817
0.648366
0.611765
0.418301
0.583007
0.491503
0.205229
0.509804
0.406536
0.909804
0.133333
0.686275
0.573856
0.281046
0.328105
0.581699
0.52549
0.381699
0.126797
0.294118
0.512418
0.189542
0.569935
0.254902
0.27451
0.278431
0.25098
0.39085
0.51634
0.25098
0.583007
0.467974
0.407843
0.214379
0.526797
0.40915
0.29281
0.537255
0.610458
0.529412
0.237908
0.366013
0.637908
0.495425
0.487582
0.575163
0.271895
0.359477
0.530719
0.464052
0.32549
0.356863
0.356863
0.47451
0.467974
0.546405
0.360784
0.541176
0.364706
0.503268
0.488889
0.420915
0.375163
0.560784
0.448366
0.596078
0.410458
0.50719
0.533333
0.379085
0.351634
0.481046
0.304575
0.405229
0.428758
0.448366
0.266667
0.68366
0.524183
0.539869
0.219608
0.47451
0.52549
0.865359
0.338562
0.244444
0.295425
0.490196
0.504575
0.554248
0.320261
0.547712
0.449673
0.36732
0.466667
0.6
0.313725
0.545098
0.494118
0.577778
0.546405
0.534641
0.535948
0.499346
0.419608
0.556863
0.660131
0.555556
0.579085
0.607843
0.488889
0.541176
0.499346
0.593464
0.403922
0.554248
0.563399
0.44183
0.598693
0.501961
0.545098
0.59085
0.467974
0.554248
0.551634
0.445752
0.467974
0.596078
0.413072
0.422222
0.465359
0.449673
0.54902
0.583007
0.47451
0.554248
0.504575
0.577778
0.443137
0.467974
0.375163
0.465359
0.445752
0.422222
0.520261
0.571242
0.418301
0.56732
0.682353
0.550327
0.402614
0.534641
0.362092
0.437908
0.402614
0.52549
0.551634
0.360784
0.407843
0.380392
0.332026
0.453595
0.49281
0.324183
0.589542
0.546405
0.63268
0.530719
0.456209
0.601307
0.490196
0.495425
0.530719
0.551634
0.581699
0.469281
0.593464
0.564706
0.305882
0.515033
0.447059
0.592157
0.313725
0.571242
0.435294
0.414379
0.379085
0.477124
0.566013
0.534641
0.394771
0.422222
0.298039
0.424837
0.484967
0.529412
0.380392
0.734641
0.611765
0.406536
0.423529
0.616993
0.362092
0.461438
0.556863
0.350327
0.554248
0.547712
0.433987
0.44183
0.407843
0.448366
0.520261
0.40915
0.448366
0.433987
0.379085
0.647059
0.807843
0.477124
0.360784
0.701961
0.538562
0.413072
0.419608
0.411765
0.462745
0.530719
0.614379
0.581699
0.324183
0.628758
0.682353
0.670588
0.569935
0.422222
0.577778
0.384314
0.495425
0.597386
0.435294
0.4
0.631373
0.342484
0.426144
0.477124
0.431373
0.444444
0.615686
0.756863
0.39085
0.428758
0.610458
0.550327
0.589542
0.356863
0.356863
0.631373
0.394771
0.423529
0.346405
0.364706
0.243137
0.662745
0.576471
0.328105
0.616993
0.614379
0.414379
0.645752
0.705882
0.568627
0.437908
0.546405
0.458824
0.664052
0.715033
0.482353
0.584314
0.495425
0.68366
0.571242
0.568627
0.68366
0.593464
0.673203
0.588235
0.55817
0.517647
0.682353
0.545098
0.275817
0.583007
0.585621
0.602614
0.304575
0.496732
0.354248
0.458824
0.533333
0.541176
0.403922
0.454902
0.20915
0.533333
0.643137
0.711111
0.887582
0.30719
0.475817
0.554248
0.383007
0.698039
0.818301
0.546405
0.392157
0.416993
0.311111
0.526797
0.505882
0.402614
0.521569
0.65098
0.563399
0.785621
0.521569
0.490196
0.49281
0.31634
0.449673
0.47451
0.70719
0.481046
0.381699
0.59085
0.448366
0.720261
0.60915
0.529412
0.671895
0.613072
0.647059
0.440523
0.823529
0.535948
0.511111
0.511111
0.329412
0.517647
0.564706
0.713725
0.623529
0.534641
0.39085
0.471895
0.388235
0.554248
0.460131
0.537255
0.473203
0.541176
0.440523
0.452288
0.649673
0.411765
0.601307
0.684967
0.381699
0.670588
0.363399
0.457516
0.543791
0.56732
0.552941
0.572549
0.366013
0.74902
0.6
0.605229
0.422222
0.403922
0.503268
0.4
0.759477
0.422222
0.366013
0.592157
0.708497
0.547712
0.487582
0.622222
0.577778
0.433987
0.460131
0.435294
0.484967
0.70719
0.49281
0.505882
0.392157
0.623529
0.312418
0.535948
0.615686
0.830065
0.615686
0.484967
0.537255
0.622222
0.543791
0.690196
0.552941
0.675817
0.376471
0.603922
0.688889
0.679739
0.589542
0.756863
0.256209
0.637908
0.499346
0.564706
0.616993
0.670588
0.529412
0.687582
0.415686
0.345098
0.477124
0.424837
0.622222
0.581699
0.551634
0.589542
0.585621
0.470588
0.728105
0.360784
0.481046
0.478431
0.265359
0.51634
0.520261
0.528105
0.403922
0.603922
0.389542
0.546405
0.487582
0.568627
0.586928
0.424837
0.205229
0.513725
0.406536
0.318954
0.535948
0.601307
0.55817
0.732026
0.413072
0.49281
0.499346
0.385621
0.534641
0.517647
0.603922
0.726797
0.420915
0.437908
0.501961
0.398693
0.677124
0.423529
0.508497
0.402614
0.530719
0.491503
0.469281
0.431373
0.482353
0.509804
0.467974
0.430065
0.465359
0.456209
0.583007
0.414379
0.368627
0.356863
0.354248
0.415686
0.405229
0.444444
0.559477
0.556863
0.23268
0.488889
0.330719
0.471895
0.392157
0.341176
0.309804
0.337255
0.426144
0.342484
0.392157
0.278431
0.359477
0.369935
0.503268
0.462745
0.35817
0.392157
0.535948
0.338562
0.419608
0.598693
0.469281
0.698039
0.499346
0.545098
0.416993
0.568627
0.471895
0.735948
0.597386
0.534641
0.394771
0.74902
0.481046
0.50719
0.741176
0.290196
0.619608
0.454902
0.738562
0.535948
0.364706
0.330719
0.222222
0.322876
0.430065
0.40915
0.328105
0.372549
0.469281
0.60915
0.345098
0.439216
0.460131
0.495425
0.637908
0.376471
0.560784
0.667974
0.49281
0.571242
0.309804
0.610458
0.456209
0.426144
0.711111
0.500654
0.598693
0.505882
0.342484
0.60915
0.359477
0.318954
0.500654
0.556863
0.619608
0.466667
0.667974
0.696732
0.555556
0.54902
0.457516
0.556863
0.359477
0.575163
0.34902
0.416993
0.520261
0.652288
0.573856
0.654902
0.573856
0.406536
0.603922
0.31634
0.614379
0.572549
0.546405
0.457516
0.556863
0.566013
0.79085
0.699346
0.760784
0.72549
0.611765
0.626144
0.373856
0.602614
0.487582
0.465359
0.542484
0.533333
0.379085
0.588235
0.573856
0.447059
0.517647
0.401307
0.572549
0.520261
0.366013
0.457516
0.356863
0.484967
0.31634
0.593464
0.623529
0.396078
0.528105
0.461438
0.411765
0.585621
0.173856
0.317647
0.326797
0.487582
0.380392
0.588235
0.219608
0.48366
0.698039
0.499346
0.732026
0.552941
0.60915
0.481046
0.566013
0.419608
0.512418
0.547712
0.278431
0.418301
0.551634
0.461438
0.563399
0.466667
0.533333
0.54902
0.439216
0.471895
0.509804
0.556863
0.330719
0.330719
0.517647
0.583007
0.48366
0.333333
0.63268
0.499346
0.627451
0.720261
0.458824
0.627451
0.413072
0.491503
0.427451
0.505882
0.528105
0.467974
0.564706
0.461438
0.534641
0.470588
0.618301
0.313725
0.603922
0.45098
0.473203
0.341176
0.571242
0.628758
0.583007
0.363399
0.453595
0.563399
0.630065
0.414379
0.717647
0.484967
0.427451
0.581699
0.437908
0.396078
0.547712
0.465359
0.352941
0.704575
0.449673
0.566013
0.509804
0.372549
0.614379
0.394771
0.335948
0.320261
0.202614
0.392157
0.639216
0.410458
0.543791
0.373856
0.385621
0.503268
0.547712
0.414379
0.526797
0.614379
0.495425
0.54902
0.6
0.579085
0.388235
0.351634
0.385621
0.520261
0.35817
0.662745
0.372549
0.614379
0.564706
0.366013
0.732026
0.380392
0.511111
0.588235
0.51634
0.537255
0.49281
0.481046
0.48366
0.766013
0.588235
0.648366
0.585621
0.500654
0.559477
0.696732
0.56732
0.743791
0.592157
0.722876
0.355556
0.423529
0.711111
0.601307
0.301961
0.630065
0.652288
0.411765
0.377778
0.375163
0.311111
0.332026
0.355556
0.50719
0.584314
0.568627
0.503268
0.341176
0.389542
0.569935
0.564706
0.508497
0.583007
0.430065
0.355556
0.454902
0.313725
0.419608
0.496732
0.464052
0.430065
0.397386
0.552941
0.515033
0.528105
0.671895
0.556863
0.703268
0.435294
0.610458
0.477124
0.571242
0.418301
0.711111
0.375163
0.436601
0.194771
0.534641
0.709804
0.499346
0.339869
0.542484
0.405229
0.491503
0.477124
0.704575
0.494118
0.636601
0.726797
0.796078
0.60915
0.820915
0.305882
0.407843
0.643137
0.430065
0.826144
0.65098
0.477124
0.589542
0.755556
0.478431
0.542484
0.494118
0.583007
0.418301
0.59085
0.509804
0.712418
0.443137
0.54902
0.484967
0.494118
0.486275
0.466667
0.475817
0.477124
0.661438
0.597386
0.419608
0.639216
0.420915
0.627451
0.508497
0.626144
0.252288
0.750327
0.552941
0.620915
0.596078
0.512418
0.607843
0.440523
0.420915
0.620915
0.518954
0.457516
0.628758
0.481046
0.534641
0.556863
0.419608
0.275817
0.728105
0.628758
0.551634
0.616993
0.661438
0.624837
0.686275
0.571242
0.398693
0.601307
0.551634
0.48366
0.449673
0.746405
0.586928
0.661438
0.542484
0.653595
0.333333
0.355556
0.677124
0.513725
0.411765
0.631373
0.517647
0.385621
0.684967
0.598693
0.352941
0.773856
0.347712
0.788235
0.601307
0.4
0.709804
0.588235
0.691503
0.695425
0.65098
0.383007
0.699346
0.34902
0.585621
0.466667
0.356863
0.630065
0.511111
0.499346
0.607843
0.60915
0.535948
0.538562
0.596078
0.575163
0.385621
0.637908
0.350327
0.384314
0.431373
0.415686
0.538562
0.448366
0.534641
0.405229
0.495425
0.258824
0.59085
0.681046
0.375163
0.503268
0.39085
0.569935
0.560784
0.518954
0.563399
0.445752
0.535948
0.559477
0.452288
0.675817
0.475817
0.440523
0.460131
0.397386
0.312418
0.364706
0.564706
0.530719
0.645752
0.597386
0.503268
0.464052
0.597386
0.447059
0.556863
0.406536
0.39085
0.509804
0.440523
0.545098
0.729412
0.729412
0.464052
0.503268
0.496732
0.477124
0.645752
0.528105
0.398693
0.503268
0.54902
0.415686
0.457516
0.601307
0.447059
0.422222
0.333333
0.669281
0.354248
0.309804
0.498039
0.491503
0.482353
0.39085
0.414379
0.473203
0.359477
0.403922
0.481046
0.415686
0.614379
0.71634
0.528105
0.670588
0.413072
0.4
0.465359
0.383007
0.305882
0.448366
0.522876
0.545098
0.443137
0.490196
0.572549
0.466667
0.623529
0.585621
0.487582
0.362092
0.54902
0.537255
0.43268
0.532026
0.475817
0.542484
0.703268
0.457516
0.60915
0.598693
0.728105
0.559477
0.398693
0.59085
0.396078
0.573856
0.684967
0.627451
0.520261
0.437908
0.479739
0.40915
0.543791
0.699346
0.372549
0.488889
0.254902
0.301961
0.36732
0.311111
0.411765
0.499346
0.575163
0.286275
0.533333
0.29281
0.351634
0.414379
0.538562
0.473203
0.51634
0.607843
0.653595
0.475817
0.60915
0.406536
0.589542
0.398693
0.406536
0.379085
0.484967
0.529412
0.537255
0.487582
0.376471
0.505882
0.688889
0.528105
0.576471
0.501961
0.596078
0.402614
0.447059
0.376471
0.571242
0.383007
0.586928
0.34902
0.410458
0.43268
0.30719
0.334641
0.339869
0.36732
0.620915
0.768627
0.528105
0.571242
0.724183
0.462745
0.699346
0.542484
0.824837
0.722876
0.575163
0.396078
0.596078
0.703268
0.528105
0.568627
0.579085
0.420915
0.371242
0.508497
0.386928
0.589542
0.656209
0.576471
0.681046
0.610458
0.498039
0.70719
0.552941
0.793464
0.428758
0.431373
0.300654
0.351634
0.521569
0.267974
0.457516
0.392157
0.537255
0.447059
0.248366
0.388235
0.31634
0.496732
0.415686
0.559477
0.508497
0.386928
0.330719
0.469281
0.610458
0.329412
0.366013
0.423529
0.515033
0.324183
0.388235
0.339869
0.277124
0.394771
0.394771
0.335948
0.347712
0.330719
0.269281
0.44183
0.414379
0.449673
0.369935
0.373856
0.380392
0.461438
0.501961
0.494118
0.571242
0.63268
0.418301
0.611765
0.75817
0.383007
0.624837
0.547712
0.524183
0.25098
0.452288
0.419608
0.624837
0.237908
0.661438
0.47451
0.533333
0.499346
0.34902
0.321569
0.562092
0.304575
0.705882
0.439216
0.430065
0.475817
0.426144
0.159477
0.194771
0.402614
0.282353
0.487582
0.309804
0.311111
0.470588
0.290196
0.291503
0.193464
0.282353
0.362092
0.266667
0.186928
0.205229
0.271895
0.300654
0.284967
0.471895
0.335948
0.303268
0.487582
0.532026
0.296732
0.321569
0.475817
0.498039
0.645752
0.385621
0.396078
0.281046
0.43268
0.423529
0.461438
0.362092
0.639216
0.511111
0.475817
0.396078
0.456209
0.426144
0.371242
0.491503
0.418301
0.454902
0.322876
0.44183
0.426144
0.494118
0.396078
0.513725
0.437908
0.338562
0.177778
0.388235
0.270588
0.475817
0.330719
0.392157
0.403922
0.313725
0.583007
0.416993
0.613072
0.511111
0.501961
0.416993
0.454902
0.253595
0.393464
0.569935
0.294118
0.379085
0.290196
0.278431
0.36732
0.270588
0.347712
0.437908
0.275817
0.431373
0.456209
0.491503
0.586928
0.59085
0.437908
0.418301
0.341176
0.164706
0.343791
0.513725
0.505882
0.49281
0.486275
0.460131
0.423529
0.205229
0.475817
0.520261
0.372549
0.522876
0.415686
0.311111
0.346405
0.24183
0.562092
0.636601
0.477124
0.654902
0.511111
0.735948
0.593464
0.669281
0.613072
0.729412
0.535948
0.499346
0.535948
0.416993
0.339869
0.503268
0.615686
0.447059
0.333333
0.630065