# vtk DataFile Version 1.0
Unstructured Grid Example
ASCII

DATASET UNSTRUCTURED_GRID
POINTS 2114 float
144 67 0
231 178 0
223 299 0
0 423 0
441 357 0
271 224 0
371 209 0
484 1 0
0 14 0
40 44 0
63 34 0
190 142 0
159 60 0
43 53 0
0 280 0
0 319 0
0 360 0
42 513 0
30 478 0
50 452 0
267 267 0
248 268 0
219 293 0
482 350 0
414 330 0
512 304 0
396 196 0
373 231 0
201 231 0
268 174 0
202 14 0
394 184 0
404 141 0
55 1 0
75 34 0
39 48 0
92 44 0
80 1 0
119 1 0
133 1 0
192 1 0
198 18 0
169 51 0
156 48 0
149 48 0
160 139 0
166 110 0
183 63 0
184 140 0
177 140 0
161 141 0
157 59 0
98 58 0
122 57 0
48 52 0
0 110 0
90 129 0
0 196 0
0 158 0
10 194 0
20 236 0
0 284 0
0 383 0
0 414 0
0 466 0
0 482 0
0 442 0
4 418 0
0 392 0
30 426 0
51 432 0
28 513 0
117 513 0
191 513 0
60 511 0
215 295 0
210 243 0
186 242 0
27 198 0
20 201 0
149 239 0
201 175 0
216 249 0
275 267 0
296 273 0
326 275 0
319 278 0
309 293 0
225 298 0
299 300 0
382 301 0
426 513 0
424 331 0
404 309 0
488 405 0
474 409 0
435 513 0
491 478 0
512 450 0
512 419 0
507 389 0
506 387 0
491 394 0
466 371 0
476 361 0
488 350 0
512 265 0
449 227 0
433 210 0
392 197 0
388 198 0
388 232 0
391 235 0
378 245 0
375 237 0
267 224 0
372 207 0
380 193 0
386 207 0
371 186 0
361 190 0
259 174 0
271 1 0
309 168 0
335 143 0
391 178 0
374 186 0
377 189 0
394 145 0
512 88 0
419 10 0
434 1 0
5 1 0
8 1 0
34 1 0
56 36 0
39 39 0
0 44 0
27 45 0
25 48 0
0 87 0
56 51 0
50 47 0
51 45 0
77 55 0
79 57 0
89 60 0
97 60 0
100 60 0
97 54 0
99 53 0
75 54 0
62 54 0
65 53 0
79 39 0
87 42 0
130 1 0
127 1 0
151 1 0
170 40 0
172 1 0
175 1 0
183 1 0
189 1 0
210 1 0
206 14 0
203 25 0
191 10 0
169 55 0
172 52 0
172 43 0
188 61 0
170 61 0
168 62 0
158 110 0
152 55 0
158 47 0
104 52 0
110 43 0
112 53 0
110 55 0
179 120 0
189 140 0
187 141 0
191 132 0
195 126 0
206 125 0
212 143 0
222 154 0
229 164 0
268 171 0
232 173 0
228 167 0
266 176 0
266 173 0
292 178 0
294 180 0
274 184 0
271 185 0
248 188 0
235 179 0
258 177 0
205 179 0
198 174 0
211 184 0
213 188 0
177 158 0
169 180 0
163 156 0
171 154 0
175 155 0
179 144 0
170 141 0
173 139 0
175 120 0
162 113 0
111 138 0
168 140 0
53 160 0
60 149 0
92 127 0
0 118 0
0 155 0
51 164 0
25 177 0
29 173 0
36 172 0
27 188 0
30 183 0
18 179 0
0 179 0
0 189 0
0 221 0
0 239 0
9 205 0
8 201 0
23 189 0
25 203 0
34 196 0
36 191 0
33 245 0
25 236 0
24 205 0
0 275 0
31 268 0
34 266 0
9 423 0
0 402 0
0 420 0
0 348 0
0 307 0
0 297 0
0 247 0
0 287 0
0 399 0
0 434 0
10 428 0
12 429 0
10 450 0
0 450 0
0 463 0
0 479 0
0 506 0
0 511 0
11 513 0
0 485 0
0 472 0
30 475 0
32 490 0
14 513 0
46 510 0
39 504 0
34 498 0
43 436 0
37 428 0
21 464 0
25 428 0
28 427 0
33 428 0
40 427 0
50 441 0
52 472 0
53 467 0
54 490 0
52 480 0
49 504 0
55 506 0
49 508 0
56 508 0
85 513 0
121 513 0
130 513 0
227 303 0
200 513 0
164 513 0
231 513 0
239 513 0
295 302 0
238 296 0
220 295 0
218 296 0
209 290 0
200 284 0
209 293 0
239 293 0
284 269 0
281 227 0
287 227 0
229 264 0
281 268 0
279 282 0
225 261 0
209 279 0
192 239 0
149 233 0
154 239 0
196 223 0
236 209 0
219 192 0
192 218 0
177 189 0
218 190 0
247 191 0
256 189 0
252 189 0
249 214 0
260 221 0
286 192 0
286 189 0
288 188 0
298 276 0
299 279 0
298 291 0
309 289 0
316 281 0
318 276 0
321 277 0
344 282 0
419 258 0
407 283 0
369 292 0
365 288 0
390 298 0
400 306 0
403 306 0
420 321 0
414 322 0
410 317 0
380 302 0
375 301 0
373 297 0
296 296 0
303 296 0
369 297 0
407 324 0
415 325 0
422 324 0
432 338 0
429 330 0
426 332 0
378 513 0
365 513 0
322 513 0
418 513 0
435 354 0
434 352 0
448 360 0
449 390 0
454 394 0
456 513 0
455 398 0
460 377 0
444 359 0
440 353 0
437 351 0
442 347 0
436 349 0
446 334 0
456 350 0
471 403 0
473 404 0
476 405 0
485 410 0
474 424 0
470 409 0
485 468 0
475 513 0
484 513 0
487 476 0
490 471 0
486 461 0
511 480 0
492 482 0
504 486 0
512 504 0
512 490 0
512 472 0
512 457 0
512 463 0
512 429 0
508 402 0
496 407 0
511 407 0
511 403 0
512 393 0
512 380 0
512 374 0
508 374 0
510 375 0
503 392 0
500 391 0
490 396 0
462 378 0
461 375 0
471 377 0
481 366 0
483 356 0
470 360 0
466 358 0
471 352 0
475 355 0
479 356 0
505 283 0
494 363 0
499 366 0
512 282 0
512 363 0
508 282 0
512 262 0
426 254 0
421 255 0
418 256 0
422 247 0
441 248 0
512 249 0
440 234 0
512 234 0
440 210 0
439 240 0
436 244 0
425 247 0
415 224 0
413 212 0
410 208 0
400 243 0
396 244 0
404 246 0
396 251 0
407 247 0
416 249 0
405 255 0
404 253 0
401 253 0
393 247 0
389 234 0
380 230 0
380 220 0
379 222 0
379 237 0
373 236 0
372 229 0
326 226 0
329 224 0
331 222 0
374 222 0
378 201 0
374 204 0
364 217 0
341 199 0
342 201 0
342 197 0
384 202 0
382 204 0
379 206 0
388 202 0
385 198 0
390 195 0
388 194 0
395 194 0
401 193 0
400 191 0
376 187 0
367 187 0
370 192 0
364 194 0
353 189 0
345 193 0
352 187 0
355 188 0
361 186 0
329 144 0
308 175 0
303 160 0
321 1 0
336 1 0
343 143 0
385 154 0
378 179 0
351 184 0
394 178 0
392 183 0
392 154 0
391 152 0
403 1 0
437 1 0
452 1 0
449 10 0
426 10 0
416 10 0
411 137 0
402 140 0
409 159 0
415 156 0
417 149 0
417 145 0
512 27 0
512 48 0
512 70 0
512 189 0
512 131 0
512 118 0
512 20 0
506 10 0
500 10 0
502 1 0
493 1 0
505 1 0
509 10 0
11 1 0
0 1 0
0 6 0
15 1 0
20 1 0
23 1 0
42 1 0
45 1 0
48 1 0
38 1 0
31 1 0
27 1 0
0 33 0
0 39 0
32 39 0
49 40 0
36 39 0
30 40 0
0 36 0
0 28 0
0 9 0
0 18 0
0 21 0
0 25 0
17 43 0
18 45 0
29 42 0
27 49 0
17 49 0
16 47 0
0 49 0
0 52 0
1 54 0
8 54 0
6 53 0
30 50 0
38 51 0
34 51 0
36 52 0
47 54 0
39 53 0
43 50 0
49 49 0
42 48 0
41 46 0
31 43 0
34 42 0
41 42 0
48 42 0
50 43 0
76 47 0
78 48 0
76 50 0
61 51 0
50 51 0
58 53 0
50 54 0
56 54 0
72 54 0
63 52 0
69 52 0
101 49 0
79 50 0
100 51 0
105 54 0
102 53 0
103 50 0
105 49 0
95 49 0
93 48 0
89 43 0
97 48 0
107 46 0
108 44 0
84 42 0
80 41 0
84 39 0
70 34 0
76 36 0
78 37 0
58 34 0
54 38 0
50 38 0
60 33 0
62 32 0
67 34 0
76 1 0
71 1 0
63 1 0
52 1 0
58 1 0
67 1 0
88 1 0
83 1 0
92 1 0
105 1 0
102 1 0
95 1 0
99 1 0
113 1 0
146 1 0
164 1 0
180 1 0
154 1 0
142 1 0
123 1 0
109 1 0
116 1 0
138 1 0
159 1 0
167 1 0
207 7 0
204 10 0
198 11 0
208 9 0
210 7 0
208 5 0
209 3 0
207 2 0
186 1 0
196 1 0
199 1 0
203 1 0
245 1 0
240 1 0
252 1 0
256 1 0
263 1 0
267 1 0
289 1 0
295 1 0
300 1 0
284 1 0
280 1 0
275 1 0
231 1 0
236 1 0
249 1 0
306 1 0
259 1 0
228 1 0
221 1 0
224 1 0
218 1 0
212 3 0
213 1 0
213 5 0
211 9 0
188 13 0
186 14 0
189 16 0
190 14 0
198 14 0
189 11 0
203 12 0
207 12 0
209 13 0
219 15 0
209 16 0
201 16 0
209 19 0
223 18 0
225 20 0
223 22 0
207 21 0
207 24 0
202 21 0
206 18 0
202 18 0
198 21 0
187 17 0
197 23 0
200 24 0
176 54 0
173 54 0
170 53 0
175 50 0
177 52 0
179 51 0
175 45 0
184 15 0
183 13 0
168 42 0
170 44 0
167 50 0
155 46 0
150 44 0
153 44 0
112 44 0
114 46 0
110 46 0
117 48 0
147 49 0
160 48 0
162 50 0
148 52 0
116 50 0
115 52 0
141 56 0
144 62 0
149 54 0
142 64 0
142 137 0
132 137 0
136 138 0
130 138 0
134 139 0
138 139 0
143 139 0
140 138 0
159 114 0
157 138 0
153 139 0
164 140 0
165 114 0
165 60 0
167 58 0
161 59 0
155 58 0
153 57 0
163 58 0
166 58 0
170 57 0
171 59 0
168 112 0
177 122 0
177 118 0
186 63 0
191 61 0
198 125 0
209 125 0
208 128 0
201 125 0
191 126 0
193 129 0
207 130 0
209 131 0
212 140 0
209 135 0
209 138 0
187 136 0
190 135 0
188 132 0
170 138 0
186 134 0
186 139 0
182 141 0
213 145 0
217 146 0
219 149 0
223 158 0
297 153 0
223 151 0
299 149 0
303 148 0
306 144 0
306 162 0
302 158 0
300 156 0
265 166 0
269 165 0
271 167 0
273 169 0
266 169 0
263 168 0
229 169 0
231 168 0
230 166 0
223 167 0
224 163 0
226 168 0
191 168 0
187 166 0
184 162 0
168 170 0
170 152 0
179 159 0
182 160 0
176 147 0
176 144 0
181 143 0
174 142 0
171 144 0
169 150 0
164 149 0
166 141 0
152 141 0
149 141 0
146 141 0
143 142 0
162 153 0
162 150 0
166 150 0
166 163 0
167 166 0
165 161 0
164 158 0
120 144 0
125 142 0
122 142 0
117 142 0
67 144 0
118 146 0
65 152 0
65 155 0
63 148 0
64 143 0
65 145 0
67 141 0
73 135 0
71 138 0
69 139 0
76 133 0
78 131 0
85 130 0
107 134 0
108 137 0
114 140 0
123 140 0
127 139 0
125 138 0
107 130 0
105 127 0
103 126 0
103 123 0
122 60 0
125 60 0
119 58 0
107 58 0
125 57 0
107 55 0
102 56 0
104 58 0
99 62 0
101 58 0
99 56 0
81 58 0
86 59 0
83 59 0
91 62 0
96 62 0
99 121 0
96 125 0
95 128 0
87 128 0
82 130 0
11 63 0
9 64 0
7 65 0
5 59 0
10 59 0
22 58 0
46 56 0
60 55 0
53 54 0
44 55 0
4 55 0
9 56 0
1 65 0
4 65 0
0 61 0
0 57 0
0 68 0
0 72 0
0 79 0
0 76 0
0 82 0
0 100 0
0 93 0
0 90 0
0 96 0
0 114 0
0 124 0
0 139 0
0 152 0
0 148 0
0 104 0
0 135 0
0 131 0
0 144 0
61 151 0
59 152 0
58 150 0
58 154 0
60 155 0
62 153 0
58 157 0
55 158 0
51 161 0
45 169 0
48 168 0
50 166 0
0 167 0
0 162 0
0 170 0
37 170 0
0 184 0
0 175 0
0 192 0
6 199 0
4 200 0
1 199 0
2 201 0
0 203 0
1 207 0
2 209 0
6 205 0
6 202 0
15 201 0
11 202 0
13 203 0
16 203 0
18 202 0
17 199 0
20 188 0
15 198 0
10 197 0
18 185 0
18 182 0
20 181 0
27 175 0
21 178 0
23 179 0
39 175 0
33 172 0
34 170 0
39 172 0
44 171 0
55 172 0
55 175 0
43 173 0
41 174 0
31 185 0
33 190 0
34 192 0
37 194 0
36 197 0
33 198 0
29 199 0
31 189 0
29 186 0
22 187 0
21 184 0
27 202 0
23 202 0
1 216 0
4 217 0
1 219 0
18 248 0
17 246 0
17 243 0
18 240 0
19 238 0
27 238 0
35 249 0
31 242 0
29 240 0
32 260 0
35 257 0
35 254 0
34 262 0
34 269 0
31 263 0
28 261 0
24 260 0
21 258 0
18 251 0
19 256 0
0 272 0
0 339 0
0 366 0
0 379 0
0 333 0
0 293 0
0 262 0
0 253 0
0 229 0
0 226 0
0 213 0
0 232 0
0 236 0
0 244 0
0 267 0
0 259 0
0 256 0
0 210 0
0 250 0
0 290 0
0 324 0
0 314 0
0 300 0
0 375 0
0 371 0
0 329 0
0 356 0
0 388 0
0 406 0
0 426 0
1 418 0
0 409 0
0 396 0
6 420 0
8 421 0
23 426 0
22 428 0
17 428 0
9 426 0
15 430 0
26 430 0
32 430 0
14 455 0
12 453 0
6 450 0
3 450 0
0 437 0
0 430 0
0 446 0
0 454 0
0 457 0
0 460 0
0 469 0
15 459 0
0 475 0
0 490 0
0 493 0
0 496 0
0 499 0
0 502 0
1 513 0
4 513 0
7 513 0
25 513 0
17 513 0
22 513 0
33 513 0
31 495 0
33 493 0
34 482 0
34 485 0
32 480 0
24 466 0
19 462 0
26 472 0
26 469 0
34 488 0
36 500 0
52 475 0
48 506 0
40 508 0
37 502 0
41 511 0
46 513 0
38 513 0
50 513 0
48 511 0
51 511 0
52 504 0
54 509 0
54 513 0
59 513 0
62 513 0
57 512 0
53 496 0
53 499 0
52 501 0
53 482 0
54 493 0
55 485 0
56 488 0
[...]
CELL_DATA 3760
COLOR_SCALARS ColorSpace 1
0.631373
0.601307
0.543791
0.554248
0.495425
0.562092
0.541176
0.607843
0.554248
0.552941
0.428758
0.552941
0.537255
0.552941
0.47451
0.551634
0.543791
0.556863
0.552941
0.498039
0.552941
0.479739
0.555556
0.690196
0.564706
0.542484
0.547712
0.555556
0.545098
0.547712
0.500654
0.635294
0.585621
0.48366
0.551634
0.541176
0.547712
0.563399
0.54902
0.554248
0.563399
0.547712
0.556863
0.534641
0.631373
0.575163
0.559477
0.462745
0.496732
0.545098
0.543791
0.552941
0.555556
0.528105
0.54902
0.54902
0.551634
0.547712
0.526797
0.52549
0.550327
0.520261
0.54902
0.547712
0.55817
0.547712
0.545098
0.55817
0.537255
0.524183
0.556863
0.54902
0.546405
0.542484
0.555556
0.543791
0.551634
0.537255
0.550327
0.545098
0.447059
0.538562
0.458824
0.545098
0.552941
0.552941
0.547712
0.546405
0.551634
0.554248
0.541176
0.551634
0.620915
0.513725
0.543791
0.512418
0.490196
0.55817
0.550327
0.541176
0.543791
0.701961
0.564706
0.533333
0.554248
0.550327
0.518954
0.596078
0.618301
0.686275
0.539869
0.550327
0.579085
0.545098
0.498039
0.639216
0.564706
0.620915
0.552941
0.503268
0.552941
0.546405
0.552941
0.566013
0.556863
0.495425
0.573856
0.543791
0.581699
0.635294
0.552941
0.572549
0.377778
0.639216
0.647059
0.592157
0.661438
0.551634
0.584314
0.547712
0.555556
0.528105
0.508497
0.559477
0.547712
0.54902
0.550327
0.543791
0.546405
0.547712
0.547712
0.635294
0.627451
0.547712
0.546405
0.550327
0.543791
0.556863
0.547712
0.54902
0.54902
0.551634
0.550327
0.547712
0.547712
0.550327
0.554248
0.546405
0.551634
0.552941
0.551634
0.512418
0.550327
0.498039
0.551634
0.541176
0.551634
0.543791
0.552941
0.606536
0.487582
0.546405
0.552941
0.411765
0.547712
0.484967
0.566013
0.550327
0.312418
0.551634
0.249673
0.559477
0.470588
0.547712
0.545098
0.541176
0.55817
0.597386
0.541176
0.543791
0.547712
0.541176
0.546405
0.551634
0.491503
0.54902
0.543791
0.547712
0.546405
0.373856
0.546405
0.556863
0.511111
0.546405
0.466667
0.537255
0.470588
0.551634
0.499346
0.545098
0.490196
0.539869
0.54902
0.513725
0.54902
0.545098
0.545098
0.542484
0.54902
0.550327
0.547712
0.550327
0.551634
0.552941
0.546405
0.550327
0.546405
0.551634
0.535948
0.551634
0.543791
0.541176
0.551634
0.552941
0.546405
0.551634
0.547712
0.54902
0.546405
0.546405
0.551634
0.555556
0.539869
0.55817
0.546405
0.554248
0.552941
0.498039
0.503268
0.547712
0.530719
0.545098
0.547712
0.543791
0.54902
0.543791
0.547712
0.550327
0.546405
0.535948
0.501961
0.547712
0.538562
0.552941
0.543791
0.546405
0.542484
0.543791
0.550327
0.545098
0.556863
0.541176
0.542484
0.546405
0.552941
0.550327
0.552941
0.543791
0.54902
0.554248
0.552941
0.54902
0.522876
0.546405
0.550327
0.543791
0.546405
0.539869
0.546405
0.543791
0.538562
0.551634
0.547712
0.555556
0.550327
0.55817
0.54902
0.478431
0.54902
0.552941
0.556863
0.48366
0.54902
0.54902
0.546405
0.513725
0.545098
0.545098
0.537255
0.547712
0.543791
0.547712
0.547712
0.546405
0.545098
0.543791
0.54902
0.545098
0.546405
0.545098
0.550327
0.424837
0.535948
0.551634
0.545098
0.56732
0.551634
0.498039
0.547712
0.551634
0.513725
0.471895
0.411765
0.509804
0.464052
0.456209
0.521569
0.402614
0.526797
0.503268
0.415686
0.543791
0.393464
0.551634
0.407843
0.622222
0.300654
0.25098
0.550327
0.551634
0.556863
0.552941
0.545098
0.555556
0.551634
0.545098
0.546405
0.54902
0.552941
0.560784
0.551634
0.550327
0.522876
0.554248
0.50719
0.556863
0.554248
0.550327
0.490196
0.546405
0.547712
0.539869
0.554248
0.552941
0.552941
0.526797
0.556863
0.550327
0.551634
0.547712
0.539869
0.54902
0.547712
0.500654
0.552941
0.559477
0.550327
0.543791
0.54902
0.54902
0.545098
0.545098
0.551634
0.550327
0.554248
0.54902
0.552941
0.550327
0.679739
0.551634
0.546405
0.552941
0.552941
0.547712
0.55817
0.704575
0.554248
0.550327
0.552941
0.547712
0.534641
0.538562
0.715033
0.552941
0.704575
0.633987
0.54902
0.695425
0.583007
0.533333
0.52549
0.546405
0.51634
0.551634
0.532026
0.539869
0.562092
0.622222
0.639216
0.619608
0.686275
0.712418
0.677124
0.698039
0.559477
0.539869
0.551634
0.711111
0.677124
0.546405
0.556863
0.550327
0.554248
0.579085
0.728105
0.542484
0.542484
0.631373
0.543791
0.713725
0.684967
0.54902
0.539869
0.550327
0.546405
0.54902
0.543791
0.546405
0.551634
0.541176
0.735948
0.546405
0.54902
0.71634
0.539869
0.551634
0.542484
0.545098
0.550327
0.546405
0.547712
0.546405
0.541176
0.545098
0.539869
0.551634
0.538562
0.589542
0.538562
0.55817
0.743791
0.54902
0.771242
0.779085
0.592157
0.68366
0.552941
0.611765
0.543791
0.545098
0.552941
0.556863
0.542484
0.555556
0.593464
0.541176
0.562092
0.554248
0.554248
0.542484
0.592157
0.64183
0.508497
0.352941
0.471895
0.541176
0.59085
0.550327
0.569935
0.535948
0.564706
0.55817
0.448366
0.542484
0.546405
0.554248
0.602614
0.616993
0.555556
0.603922
0.54902
0.546405
0.503268
0.551634
0.503268
0.469281
0.462745
0.546405
0.606536
0.554248
0.701961
0.342484
0.504575
0.522876
0.552941
0.545098
0.427451
0.551634
0.547712
0.552941
0.550327
0.572549
0.55817
0.469281
0.551634
0.520261
0.543791
0.552941
0.551634
0.551634
0.538562
0.585621
0.535948
0.569935
0.583007
0.562092
0.606536
0.479739
0.592157
0.639216
0.386928
0.594771
0.573856
0.618301
0.6
0.603922
0.542484
0.575163
0.556863
0.556863
0.488889
0.605229
0.484967
0.568627
0.554248
0.576471
0.547712
0.555556
0.566013
0.568627
0.542484
0.555556
0.547712
0.54902
0.547712
0.554248
0.573856
0.579085
0.55817
0.597386
0.583007
0.586928
0.573856
0.619608
0.498039
0.640523
0.594771
0.572549
0.759477
0.566013
0.545098
0.545098
0.515033
0.55817
0.551634
0.555556
0.54902
0.550327
0.551634
0.555556
0.815686
0.555556
0.654902
0.559477
0.555556
0.555556
0.559477
0.543791
0.55817
0.546405
0.647059
0.555556
0.734641
0.555556
0.552941
0.552941
0.554248
0.555556
0.54902
0.547712
0.545098
0.54902
0.546405
0.547712
0.55817
0.542484
0.550327
0.551634
0.556863
0.547712
0.552941
0.552941
0.541176
0.552941
0.556863
0.547712
0.550327
0.547712
0.547712
0.543791
0.529412
0.550327
0.626144
0.559477
0.555556
0.551634
0.552941
0.684967
0.622222
0.555556
0.552941
0.524183
0.547712
0.508497
0.554248
0.551634
0.546405
0.554248
0.681046
0.593464
0.60915
0.6
0.562092
0.542484
0.538562
0.533333
0.539869
0.55817
0.552941
0.546405
0.508497
0.539869
0.547712
0.55817
0.546405
0.550327
0.550327
0.546405
0.551634
0.552941
0.546405
0.555556
0.551634
0.556863
0.562092
0.552941
0.546405
0.547712
0.552941
0.552941
0.55817
0.546405
0.552941
0.542484
0.550327
0.551634
0.539869
0.555556
0.551634
0.543791
0.554248
0.550327
0.550327
0.541176
0.54902
0.550327
0.552941
0.546405
0.530719
0.522876
0.552941
0.547712
0.542484
0.541176
0.54902
0.546405
0.537255
0.535948
0.528105
0.552941
0.522876
0.546405
0.579085
0.569935
0.618301
0.542484
0.522876
0.51634
0.52549
0.524183
0.522876
0.505882
0.482353
0.545098
0.529412
0.530719
0.501961
0.563399
0.586928
0.552941
0.543791
0.547712
0.537255
0.542484
0.543791
0.541176
0.559477
0.556863
0.555556
0.54902
0.559477
0.513725
0.554248
0.568627
0.542484
0.554248
0.542484
0.539869
0.517647
0.466667
0.54902
0.452288
0.491503
0.500654
0.54902
0.51634
0.503268
0.55817
0.551634
0.547712
0.546405
0.546405
0.555556
0.550327
0.552941
0.552941
0.542484
0.452288
0.337255
0.543791
0.495425
0.532026
0.555556
0.644444
0.623529
0.205229
0.556863
0.551634
0.562092
0.543791
0.342484
0.552941
0.562092
0.575163
0.56732
0.550327
0.589542
0.607843
0.347712
0.560784
0.550327
0.551634
0.550327
0.475817
0.556863
0.542484
0.545098
0.54902
0.539869
0.550327
0.55817
0.552941
0.546405
0.542484
0.541176
0.547712
0.543791
0.543791
0.542484
0.551634
0.532026
0.551634
0.575163
0.555556
0.249673
0.551634
0.373856
0.541176
0.305882
0.551634
0.51634
0.546405
0.51634
0.571242
0.554248
0.423529
0.533333
0.539869
0.550327
0.54902
0.554248
0.533333
0.554248
0.547712
0.520261
0.554248
0.546405
0.550327
0.543791
0.547712
0.556863
0.552941
0.551634
0.564706
0.550327
0.551634
0.555556
0.552941
0.559477
0.547712
0.541176
0.499346
0.6
0.499346
0.457516
0.496732
0.551634
0.546405
0.551634
0.547712
0.552941
0.551634
0.547712
0.54902
0.55817
0.551634
0.547712
0.491503
0.543791
0.539869
0.467974
0.494118
0.511111
0.545098
0.481046
0.537255
0.464052
0.535948
0.457516
0.6
0.597386
0.534641
0.6
0.534641
0.467974
0.482353
0.470588
0.471895
0.518954
0.545098
0.49281
0.520261
0.49281
0.496732
0.528105
0.522876
0.491503
0.494118
0.504575
0.501961
0.49281
0.54902
0.547712
0.54902
0.495425
0.556863
0.496732
0.552941
0.496732
0.495425
0.471895
0.48366
0.47451
0.500654
0.522876
0.547712
0.546405
0.54902
0.550327
0.545098
0.539869
0.543791
0.547712
0.542484
0.530719
0.546405
0.546405
0.532026
0.555556
0.552941
0.550327
0.547712
0.542484
0.542484
0.530719
0.539869
0.541176
0.551634
0.545098
0.543791
0.545098
0.542484
0.546405
0.546405
0.537255
0.511111
0.542484
0.542484
0.552941
0.547712
0.547712
0.546405
0.551634
0.551634
0.551634
0.550327
0.54902
0.554248
0.551634
0.554248
0.551634
0.54902
0.54902
0.551634
0.54902
0.552941
0.552941
0.555556
0.556863
0.555556
0.552941
0.550327
0.54902
0.551634
0.54902
0.545098
0.54902
0.546405
0.546405
0.520261
0.546405
0.546405
0.54902
0.554248
0.54902
0.546405
0.555556
0.54902
0.550327
0.552941
0.554248
0.552941
0.547712
0.547712
0.550327
0.546405
0.54902
0.54902
0.54902
0.546405
0.54902
0.552941
0.551634
0.554248
0.554248
0.54902
0.552941
0.550327
0.554248
0.547712
0.545098
0.551634
0.545098
0.551634
0.551634
0.554248
0.551634
0.522876
0.550327
0.552941
0.554248
0.55817
0.554248
0.551634
0.555556
0.551634
0.546405
0.551634
0.550327
0.551634
0.522876
0.551634
0.494118
0.554248
0.528105
0.554248
0.556863
0.495425
0.498039
0.521569
0.512418
0.509804
0.501961
0.50719
0.498039
0.496732
0.522876
0.498039
0.496732
0.496732
0.495425
0.496732
0.515033
0.522876
0.533333
0.537255
0.490196
0.503268
0.498039
0.498039
0.496732
0.494118
0.518954
0.537255
0.546405
0.546405
0.54902
0.538562
0.546405
0.539869
0.54902
0.545098
0.547712
0.490196
0.541176
0.550327
0.542484
0.552941
0.546405
0.542484
0.541176
0.543791
0.542484
0.539869
0.509804
0.513725
0.505882
0.545098
0.494118
0.49281
0.49281
0.49281
0.490196
0.51634
0.490196
0.49281
0.518954
0.546405
0.501961
0.49281
0.530719
0.501961
0.520261
0.521569
0.546405
0.546405
0.554248
0.532026
0.547712
0.551634
0.52549
0.517647
0.546405
0.546405
0.547712
0.54902
0.533333
0.546405
0.551634
0.54902
0.54902
0.546405
0.547712
0.54902
0.533333
0.547712
0.547712
0.54902
0.550327
0.550327
0.550327
0.542484
0.515033
0.554248
0.54902
0.546405
0.552941
0.552941
0.54902
0.496732
0.547712
0.546405
0.534641
0.543791
0.51634
0.552941
0.543791
0.550327
0.550327
0.547712
0.552941
0.555556
0.550327
0.550327
0.547712
0.547712
0.54902
0.546405
0.546405
0.547712
0.543791
0.543791
0.547712
0.547712
0.538562
0.54902
0.543791
0.551634
0.547712
0.539869
0.543791
0.545098
0.546405
0.545098
0.542484
0.543791
0.547712
0.532026
0.534641
0.533333
0.545098
0.552941
0.547712
0.550327
0.542484
0.554248
0.543791
0.552941
0.498039
0.552941
0.550327
0.547712
0.554248
0.528105
0.547712
0.554248
0.551634
0.554248
0.550327
0.550327
0.54902
0.550327
0.546405
0.556863
0.566013
0.551634
0.556863
0.538562
0.54902
0.550327
0.54902
0.550327
0.542484
0.541176
0.545098
0.534641
0.547712
0.538562
0.533333
0.545098
0.545098
0.541176
0.50719
0.546405
0.55817
0.54902
0.555556
0.551634
0.593464
0.554248
0.54902
0.554248
0.550327
0.555556
0.541176
0.551634
0.54902
0.542484
0.543791
0.555556
0.545098
0.550327
0.547712
0.556863
0.547712
0.550327
0.542484
0.541176
0.559477
0.547712
0.545098
0.543791
0.546405
0.547712
0.542484
0.535948
0.537255
0.545098
0.55817
0.551634
0.546405
0.552941
0.54902
0.551634
0.54902
0.543791
0.539869
0.543791
0.541176
0.546405
0.545098
0.543791
0.545098
0.552941
0.547712
0.547712
0.550327
0.545098
0.552941
0.552941
0.552941
0.556863
0.555556
0.547712
0.54902
0.552941
0.546405
0.554248
0.554248
0.550327
0.556863
0.560784
0.554248
0.560784
0.556863
0.560784
0.560784
0.550327
0.54902
0.552941
0.551634
0.545098
0.543791
0.54902
0.552941
0.547712
0.54902
0.550327
0.54902
0.551634
0.550327
0.555556
0.554248
0.554248
0.54902
0.552941
0.550327
0.550327
0.534641
0.547712
0.539869
0.552941
0.547712
0.542484
0.550327
0.559477
0.546405
0.547712
0.552941
0.54902
0.530719
0.554248
0.541176
0.551634
0.530719
0.546405
0.547712
0.547712
0.538562
0.550327
0.550327
0.550327
0.545098
0.547712
0.542484
0.545098
0.543791
0.555556
0.512418
0.545098
0.545098
0.546405
0.545098
0.554248
0.547712
0.551634
0.54902
0.552941
0.543791
0.275817
0.444444
0.470588
0.407843
0.491503
0.384314
0.584314
0.592157
0.464052
0.501961
0.326797
0.488889
0.43268
0.4
0.471895
0.490196
0.550327
0.551634
0.550327
0.551634
0.54902
0.556863
0.546405
0.555556
0.550327
0.555556
0.465359
0.55817
0.552941
0.500654
0.56732
0.54902
0.572549
0.550327
0.556863
0.556863
0.60915
0.55817
0.59085
0.520261
0.573856
0.560784
0.435294
0.477124
0.34902
0.616993
0.490196
0.435294
0.626144
0.644444
0.484967
0.500654
0.568627
0.550327
0.551634
0.555556
0.552941
0.552941
0.554248
0.551634
0.551634
0.552941
0.54902
0.552941
0.54902
0.54902
0.550327
0.547712
0.54902
0.54902
0.494118
0.546405
0.545098
0.546405
0.522876
0.542484
0.535948
0.550327
0.546405
0.547712
0.546405
0.545098
0.551634
0.550327
0.533333
0.547712
0.551634
0.54902
0.55817
0.551634
0.554248
0.550327
0.555556
0.554248
0.551634
0.552941
0.54902
0.54902
0.550327
0.554248
0.554248
0.547712
0.556863
0.546405
0.539869
0.550327
0.552941
0.539869
0.546405
0.547712
0.543791
0.543791
0.545098
0.542484
0.541176
0.543791
0.546405
0.546405
0.546405
0.545098
0.545098
0.546405
0.539869
0.542484
0.543791
0.547712
0.542484
0.546405
0.54902
0.546405
0.546405
0.545098
0.54902
0.543791
0.538562
0.539869
0.542484
0.547712
0.541176
0.545098
0.552941
0.547712
0.556863
0.550327
0.551634
0.554248
0.550327
0.541176
0.554248
0.547712
0.479739
0.546405
0.511111
0.546405
0.509804
0.554248
0.547712
0.550327
0.546405
0.551634
0.539869
0.546405
0.515033
0.543791
0.538562
0.545098
0.539869
0.546405
0.539869
0.545098
0.560784
0.54902
0.555556
0.551634
0.537255
0.555556
0.515033
0.552941
0.552941
0.551634
0.543791
0.50719
0.478431
0.482353
0.479739
0.477124
0.473203
0.475817
0.473203
0.49281
0.495425
0.545098
0.498039
0.505882
0.487582
0.512418
0.505882
0.526797
0.545098
0.546405
0.546405
0.543791
0.543791
0.512418
0.545098
0.543791
0.550327
0.546405
0.546405
0.54902
0.551634
0.545098
0.547712
0.545098
0.545098
0.52549
0.54902
0.550327
0.545098
0.547712
0.54902
0.54902
0.487582
0.496732
0.490196
0.546405
0.551634
0.520261
0.526797
0.49281
0.526797
0.537255
0.551634
0.52549
0.551634
0.539869
0.547712
0.538562
0.551634
0.54902
0.537255
0.551634
0.554248
0.551634
0.552941
0.552941
0.551634
0.551634
0.550327
0.551634
0.54902
0.54902
0.551634
0.554248
0.551634
0.554248
0.554248
0.550327
0.550327
0.54902
0.545098
0.545098
0.546405
0.545098
0.545098
0.547712
0.550327
0.535948
0.551634
0.530719
0.546405
0.545098
0.541176
0.550327
0.521569
0.551634
0.515033
0.555556
0.551634
0.550327
0.551634
0.550327
0.556863
0.515033
0.54902
0.555556
0.54902
0.54902
0.550327
0.54902
0.552941
0.556863
0.551634
0.54902
0.54902
0.54902
0.554248
0.554248
0.543791
0.546405
0.545098
0.545098
0.546405
0.550327
0.546405
0.542484
0.550327
0.554248
0.551634
0.550327
0.555556
0.541176
0.539869
0.551634
0.545098
0.554248
0.545098
0.552941
0.54902
0.550327
0.554248
0.551634
0.54902
0.552941
0.551634
0.552941
0.563399
0.555556
0.556863
0.550327
0.559477
0.547712
0.589542
0.550327
0.569935
0.566013
0.54902
0.550327
0.550327
0.542484
0.54902
0.545098
0.539869
0.542484
0.546405
0.552941
0.551634
0.550327
0.55817
0.545098
0.556863
0.556863
0.547712
0.556863
0.552941
0.611765
0.54902
0.545098
0.555556
0.551634
0.551634
0.666667
0.554248
0.559477
0.598693
0.613072
0.611765
0.664052
0.630065
0.601307
0.619608
0.675817
0.705882
0.607843
0.588235
0.556863
0.559477
0.556863
0.563399
0.573856
0.584314
0.59085
0.573856
0.648366
0.637908
0.626144
0.551634
0.59085
0.576471
0.700654
0.715033
0.709804
0.708497
0.611765
0.606536
0.701961
0.592157
0.628758
0.586928
0.610458
0.530719
0.543791
0.554248
0.585621
0.572549
0.624837
0.618301
0.592157
0.535948
0.547712
0.542484
0.576471
0.550327
0.545098
0.550327
0.543791
0.54902
0.537255
0.522876
0.542484
0.543791
0.547712
0.542484
0.551634
0.545098
0.542484
0.690196
0.603922
0.550327
0.547712
0.556863
0.6
0.52549
0.529412
0.521569
0.515033
0.547712
0.6
0.640523
0.658824
0.696732
0.566013
0.635294
0.704575
0.619608
0.720261
0.684967
0.734641
0.722876
0.686275
0.696732
0.705882
0.611765
0.657516
0.63268
0.581699
0.554248
0.59085
0.556863
0.539869
0.552941
0.547712
0.547712
0.547712
0.555556
0.554248
0.563399
0.556863
0.546405
0.630065
0.55817
0.631373
0.546405
0.55817
0.542484
0.534641
0.552941
0.552941
0.542484
0.633987
0.541176
0.545098
0.551634
0.576471
0.601307
0.554248
0.551634
0.6
0.550327
0.575163
0.551634
0.54902
0.556863
0.547712
0.554248
0.551634
0.541176
0.550327
0.550327
0.542484
0.54902
0.555556
0.541176
0.538562
0.541176
0.542484
0.551634
0.539869
0.550327
0.547712
0.539869
0.539869
0.568627
0.534641
0.54902
0.541176
0.550327
0.656209
0.743791
0.533333
0.534641
0.636601
0.534641
0.543791
0.543791
0.539869
0.543791
0.538562
0.54902
0.541176
0.532026
0.537255
0.541176
0.537255
0.543791
0.542484
0.546405
0.545098
0.547712
0.542484
0.541176
0.546405
0.543791
0.54902
0.539869
0.54902
0.541176
0.542484
0.545098
0.545098
0.543791
0.54902
0.546405
0.594771
0.546405
0.543791
0.542484
0.547712
0.552941
0.546405
0.550327
0.547712
0.718954
0.545098
0.551634
0.705882
0.545098
0.571242
0.580392
0.543791
0.560784
0.559477
0.556863
0.54902
0.550327
0.555556
0.543791
0.552941
0.546405
0.547712
0.542484
0.54902
0.619608
0.607843
0.65098
0.56732
0.598693
0.63268
0.545098
0.573856
0.552941
0.555556
0.546405
0.545098
0.579085
0.598693
0.456209
0.564706
0.585621
0.610458
0.546405
0.542484
0.551634
0.546405
0.556863
0.552941
0.592157
0.545098
0.546405
0.546405
0.54902
0.555556
0.631373
0.552941
0.552941
0.550327
0.628758
0.69281
0.699346
0.746405
0.742484
0.610458
0.569935
0.575163
0.635294
0.643137
0.675817
0.726797
0.639216
0.695425
0.681046
0.68366
0.677124
0.69281
0.720261
0.755556
0.546405
0.648366
0.546405
0.551634
0.550327
0.552941
0.550327
0.639216
0.554248
0.55817
0.556863
0.550327
0.552941
0.559477
0.554248
0.550327
0.546405
0.628758
0.545098
0.543791
0.54902
0.550327
0.556863
0.60915
0.554248
0.551634
0.556863
0.547712
0.555556
0.560784
0.559477
0.551634
0.759477
0.783007
0.555556
0.554248
0.559477
0.54902
0.792157
0.711111
0.831373
0.833987
0.833987
0.83268
0.528105
0.654902
0.586928
0.550327
0.796078
0.827451
0.605229
0.60915
0.603922
0.647059
0.620915
0.65098
0.550327
0.60915
0.543791
0.636601
0.606536
0.640523
0.630065
0.596078
0.563399
0.577778
0.60915
0.572549
0.605229
0.620915
0.59085
0.547712
0.584314
0.59085
0.541176
0.584314
0.569935
0.626144
0.635294
0.529412
0.482353
0.501961
0.637908
0.593464
0.631373
0.530719
0.615686
0.60915
0.453595
0.60915
0.554248
0.496732
0.606536
0.640523
0.542484
0.532026
0.603922
0.606536
0.467974
0.524183
0.512418
0.537255
0.407843
0.449673
0.45098
0.479739
0.537255
0.437908
0.49281
0.508497
0.443137
0.388235
0.456209
0.427451
0.465359
0.445752
0.471895
0.420915
0.55817
0.539869
0.556863
0.547712
0.569935
0.498039
0.538562
0.547712
0.545098
0.554248
0.54902
0.556863
0.54902
0.537255
0.555556
0.547712
0.554248
0.552941
0.547712
0.538562
0.547712
0.537255
0.556863
0.555556
0.552941
0.547712
0.43268
0.584314
0.520261
0.576471
0.517647
0.51634
0.499346
0.452288
0.528105
0.513725
0.424837
0.504575
0.466667
0.477124
0.445752
0.550327
0.486275
0.490196
0.49281
0.556863
0.453595
0.461438
0.431373
0.631373
0.569935
0.566013
0.613072
0.613072
0.607843
0.568627
0.594771
0.564706
0.656209
0.598693
0.649673
0.669281
0.662745
0.635294
0.494118
0.65098
0.469281
0.666667
0.611765
0.498039
0.615686
0.586928
0.466667
0.626144
0.457516
0.564706
0.495425
0.470588
0.517647
0.458824
0.460131
0.443137
0.478431
0.490196
0.458824
0.49281
0.505882
0.554248
0.501961
0.456209
0.552941
0.552941
0.551634
0.543791
0.538562
0.535948
0.54902
0.550327
0.550327
0.54902
0.55817
0.546405
0.495425
0.54902
0.543791
0.554248