# vtk DataFile Version 1.0
Unstructured Grid Example
ASCII

DATASET UNSTRUCTURED_GRID
POINTS 1655 float
42 513 0
46 513 0
50 513 0
59 513 0
57 512 0
41 511 0
48 511 0
51 511 0
60 511 0
46 510 0
54 509 0
40 508 0
49 508 0
56 508 0
48 506 0
55 506 0
39 504 0
49 504 0
52 504 0
37 502 0
52 501 0
36 500 0
53 499 0
34 498 0
53 496 0
31 495 0
33 493 0
54 493 0
32 490 0
54 490 0
34 488 0
56 488 0
504 486 0
34 485 0
55 485 0
502 485 0
506 485 0
509 485 0
498 484 0
511 484 0
34 482 0
53 482 0
492 482 0
497 482 0
510 482 0
495 481 0
32 480 0
52 480 0
511 480 0
494 479 0
30 478 0
491 478 0
511 477 0
487 476 0
30 475 0
52 475 0
485 474 0
491 474 0
488 473 0
26 472 0
52 472 0
485 471 0
490 471 0
54 470 0
26 469 0
485 468 0
53 467 0
24 466 0
21 464 0
53 464 0
487 464 0
19 462 0
486 461 0
55 460 0
15 459 0
483 459 0
481 457 0
55 456 0
14 455 0
477 455 0
56 454 0
12 453 0
54 453 0
50 452 0
476 452 0
52 451 0
0 450 0
3 450 0
6 450 0
10 450 0
49 450 0
54 450 0
475 449 0
48 448 0
475 446 0
49 445 0
476 442 0
50 441 0
478 439 0
44 438 0
51 438 0
43 436 0
46 436 0
50 436 0
479 436 0
44 434 0
49 434 0
53 434 0
476 434 0
42 433 0
478 433 0
51 432 0
56 432 0
474 432 0
481 432 0
34 431 0
15 430 0
26 430 0
32 430 0
53 430 0
477 430 0
480 430 0
12 429 0
35 429 0
41 429 0
10 428 0
17 428 0
22 428 0
25 428 0
33 428 0
37 428 0
475 428 0
478 428 0
28 427 0
40 427 0
9 426 0
23 426 0
30 426 0
43 426 0
476 426 0
474 424 0
9 423 0
8 421 0
473 421 0
0 420 0
6 420 0
475 419 0
1 418 0
4 418 0
477 418 0
478 414 0
471 413 0
475 413 0
473 412 0
507 411 0
510 411 0
472 410 0
485 410 0
470 409 0
474 409 0
500 409 0
502 408 0
508 408 0
468 407 0
473 407 0
483 407 0
486 407 0
489 407 0
493 407 0
496 407 0
499 407 0
506 407 0
511 407 0
471 406 0
491 406 0
469 405 0
476 405 0
482 405 0
488 405 0
473 404 0
478 404 0
509 404 0
471 403 0
511 403 0
469 402 0
474 402 0
479 402 0
508 402 0
471 400 0
455 398 0
462 398 0
459 397 0
461 396 0
490 396 0
494 396 0
454 394 0
457 394 0
460 394 0
491 394 0
497 394 0
489 393 0
495 392 0
503 392 0
492 391 0
497 391 0
500 391 0
505 391 0
449 390 0
452 390 0
509 390 0
499 389 0
507 389 0
447 388 0
504 388 0
510 388 0
450 387 0
453 387 0
498 387 0
506 387 0
446 386 0
501 386 0
448 385 0
505 385 0
510 385 0
503 384 0
508 384 0
447 383 0
474 383 0
511 382 0
452 378 0
462 378 0
509 378 0
454 377 0
460 377 0
464 377 0
471 377 0
511 377 0
467 376 0
506 376 0
461 375 0
470 375 0
510 375 0
454 374 0
459 374 0
468 374 0
508 374 0
457 373 0
506 373 0
444 372 0
448 372 0
455 372 0
511 372 0
450 371 0
453 371 0
466 371 0
504 371 0
442 370 0
456 370 0
460 370 0
464 370 0
502 370 0
506 370 0
509 370 0
451 369 0
499 369 0
511 369 0
453 368 0
459 368 0
462 368 0
442 367 0
449 367 0
479 367 0
445 366 0
451 366 0
454 366 0
458 366 0
481 366 0
499 366 0
504 366 0
447 365 0
456 365 0
502 365 0
497 364 0
472 363 0
494 363 0
503 363 0
474 362 0
476 361 0
493 361 0
448 360 0
470 360 0
444 359 0
450 359 0
472 359 0
477 359 0
480 359 0
491 359 0
447 358 0
466 358 0
489 358 0
441 357 0
445 357 0
449 357 0
452 357 0
464 357 0
468 357 0
473 357 0
481 357 0
486 357 0
439 356 0
443 356 0
471 356 0
479 356 0
483 356 0
446 355 0
461 355 0
475 355 0
428 354 0
432 354 0
435 354 0
438 354 0
444 354 0
458 354 0
477 354 0
480 354 0
440 353 0
469 353 0
473 353 0
426 352 0
429 352 0
434 352 0
471 352 0
487 352 0
437 351 0
459 351 0
456 350 0
482 350 0
488 350 0
436 349 0
480 349 0
438 348 0
450 348 0
453 348 0
442 347 0
445 347 0
448 347 0
440 346 0
432 345 0
436 345 0
434 344 0
459 344 0
462 344 0
457 343 0
431 342 0
435 342 0
436 340 0
455 340 0
459 340 0
462 340 0
434 339 0
432 338 0
430 337 0
455 337 0
458 337 0
447 336 0
431 335 0
446 334 0
420 333 0
418 332 0
426 332 0
431 332 0
511 332 0
421 331 0
424 331 0
414 330 0
419 330 0
429 330 0
416 329 0
412 328 0
414 327 0
411 326 0
417 326 0
421 326 0
409 325 0
415 325 0
407 324 0
418 324 0
422 324 0
405 323 0
403 322 0
411 322 0
414 322 0
424 322 0
420 321 0
401 320 0
404 320 0
410 320 0
413 320 0
417 320 0
419 319 0
408 318 0
406 317 0
410 317 0
413 317 0
404 315 0
406 314 0
409 314 0
403 313 0
407 312 0
406 310 0
404 309 0
400 306 0
403 306 0
227 303 0
224 302 0
295 302 0
377 302 0
380 302 0
388 302 0
396 302 0
399 302 0
231 301 0
375 301 0
382 301 0
391 301 0
226 300 0
299 300 0
386 300 0
394 300 0
210 299 0
223 299 0
295 299 0
374 299 0
388 299 0
206 298 0
212 298 0
225 298 0
309 298 0
390 298 0
216 297 0
244 297 0
301 297 0
313 297 0
366 297 0
369 297 0
373 297 0
213 296 0
218 296 0
238 296 0
296 296 0
303 296 0
308 296 0
371 296 0
206 295 0
215 295 0
220 295 0
234 295 0
241 295 0
315 295 0
364 295 0
367 295 0
204 294 0
298 294 0
304 294 0
311 294 0
370 294 0
209 293 0
219 293 0
236 293 0
239 293 0
309 293 0
305 292 0
312 292 0
369 292 0
207 291 0
218 291 0
298 291 0
308 291 0
363 291 0
209 290 0
367 290 0
216 289 0
299 289 0
309 289 0
361 289 0
206 288 0
311 288 0
365 288 0
210 287 0
207 286 0
313 286 0
360 286 0
204 285 0
215 285 0
285 285 0
299 285 0
355 285 0
511 285 0
200 284 0
281 284 0
507 284 0
213 283 0
347 283 0
351 283 0
407 283 0
505 283 0
209 282 0
279 282 0
283 282 0
299 282 0
314 282 0
330 282 0
333 282 0
336 282 0
339 282 0
344 282 0
508 282 0
201 281 0
316 281 0
500 281 0
203 279 0
206 279 0
209 279 0
299 279 0
315 279 0
319 278 0
327 278 0
316 277 0
321 277 0
298 276 0
318 276 0
511 276 0
323 275 0
326 275 0
296 273 0
293 272 0
289 271 0
34 269 0
238 269 0
284 269 0
287 269 0
31 268 0
243 268 0
248 268 0
281 268 0
233 267 0
251 267 0
254 267 0
258 267 0
263 267 0
267 267 0
272 267 0
275 267 0
278 267 0
34 266 0
229 264 0
31 263 0
34 262 0
28 261 0
225 261 0
24 260 0
32 260 0
430 260 0
21 258 0
419 258 0
35 257 0
223 257 0
413 257 0
423 257 0
19 256 0
411 256 0
418 256 0
433 256 0
221 255 0
405 255 0
409 255 0
414 255 0
421 255 0
35 254 0
407 254 0
412 254 0
417 254 0
423 254 0
426 254 0
434 254 0
219 253 0
401 253 0
404 253 0
399 252 0
427 252 0
18 251 0
396 251 0
438 251 0
444 251 0
392 250 0
401 250 0
406 250 0
414 250 0
430 250 0
442 250 0
35 249 0
216 249 0
389 249 0
408 249 0
412 249 0
416 249 0
420 249 0
439 249 0
18 248 0
385 248 0
395 248 0
399 248 0
403 248 0
418 248 0
432 248 0
441 248 0
214 247 0
382 247 0
393 247 0
397 247 0
401 247 0
407 247 0
415 247 0
422 247 0
425 247 0
434 247 0
17 246 0
380 246 0
391 246 0
404 246 0
410 246 0
413 246 0
419 246 0
427 246 0
33 245 0
186 245 0
191 245 0
212 245 0
378 245 0
386 245 0
394 245 0
398 245 0
408 245 0
384 244 0
388 244 0
396 244 0
402 244 0
412 244 0
415 244 0
428 244 0
436 244 0
17 243 0
164 243 0
210 243 0
375 243 0
382 243 0
391 243 0
400 243 0
409 243 0
31 242 0
158 242 0
186 242 0
395 242 0
411 242 0
430 242 0
438 242 0
450 242 0
153 241 0
190 241 0
371 241 0
374 241 0
381 241 0
399 241 0
432 241 0
18 240 0
29 240 0
156 240 0
206 240 0
383 240 0
394 240 0
397 240 0
434 240 0
439 240 0
149 239 0
154 239 0
187 239 0
192 239 0
360 239 0
370 239 0
380 239 0
19 238 0
27 238 0
358 238 0
363 238 0
367 238 0
377 238 0
393 238 0
436 238 0
440 238 0
155 237 0
365 237 0
375 237 0
379 237 0
20 236 0
25 236 0
204 236 0
373 236 0
438 236 0
147 235 0
356 235 0
368 235 0
371 235 0
377 235 0
391 235 0
442 235 0
455 235 0
153 234 0
202 234 0
375 234 0
389 234 0
393 234 0
440 234 0
460 234 0
149 233 0
444 233 0
315 232 0
320 232 0
366 232 0
376 232 0
385 232 0
388 232 0
442 232 0
462 232 0
201 231 0
306 231 0
309 231 0
312 231 0
355 231 0
373 231 0
382 231 0
303 230 0
367 230 0
375 230 0
380 230 0
435 230 0
295 229 0
299 229 0
323 229 0
369 229 0
372 229 0
432 229 0
448 229 0
291 228 0
379 228 0
429 228 0
434 228 0
148 227 0
198 227 0
281 227 0
284 227 0
287 227 0
356 227 0
427 227 0
438 227 0
449 227 0
277 226 0
326 226 0
368 226 0
377 226 0
381 226 0
421 226 0
424 226 0
433 226 0
436 226 0
440 226 0
274 225 0
358 225 0
379 225 0
418 225 0
426 225 0
431 225 0
267 224 0
271 224 0
329 224 0
415 224 0
437 224 0
453 224 0
196 223 0
359 223 0
377 223 0
381 223 0
439 223 0
264 222 0
331 222 0
374 222 0
379 222 0
441 222 0
452 222 0
194 221 0
260 221 0
360 221 0
376 221 0
382 221 0
443 221 0
380 220 0
415 220 0
1 219 0
254 219 0
257 219 0
333 219 0
362 219 0
377 219 0
444 219 0
456 219 0
192 218 0
379 218 0
382 218 0
4 217 0
335 217 0
364 217 0
1 216 0
251 216 0
384 216 0
414 216 0
192 215 0
443 215 0
249 214 0
365 214 0
242 213 0
245 213 0
336 213 0
189 212 0
366 212 0
413 212 0
443 212 0
240 211 0
384 211 0
238 210 0
337 210 0
369 210 0
412 210 0
433 210 0
437 210 0
440 210 0
2 209 0
188 209 0
236 209 0
340 209 0
371 209 0
376 209 0
382 209 0
430 209 0
378 208 0
384 208 0
410 208 0
442 208 0
1 207 0
228 207 0
231 207 0
234 207 0
372 207 0
386 207 0
426 207 0
439 207 0
186 206 0
375 206 0
379 206 0
409 206 0
428 206 0
6 205 0
9 205 0
24 205 0
233 205 0
339 205 0
385 205 0
412 205 0
425 205 0
229 204 0
343 204 0
374 204 0
378 204 0
382 204 0
423 204 0
0 203 0
13 203 0
16 203 0
25 203 0
185 203 0
6 202 0
11 202 0
18 202 0
23 202 0
27 202 0
228 202 0
384 202 0
388 202 0
411 202 0
422 202 0
2 201 0
8 201 0
15 201 0
20 201 0
342 201 0
378 201 0
386 201 0
390 201 0
4 200 0
227 200 0
381 200 0
392 200 0
412 200 0
421 200 0
1 199 0
6 199 0
17 199 0
29 199 0
183 199 0
341 199 0
377 199 0
383 199 0
414 199 0
419 199 0
15 198 0
27 198 0
33 198 0
226 198 0
385 198 0
388 198 0
417 198 0
10 197 0
36 197 0
181 197 0
223 197 0
342 197 0
376 197 0
382 197 0
392 197 0
34 196 0
221 196 0
340 196 0
374 196 0
380 196 0
396 196 0
343 195 0
372 195 0
378 195 0
385 195 0
390 195 0
10 194 0
37 194 0
180 194 0
220 194 0
283 194 0
364 194 0
369 194 0
376 194 0
388 194 0
395 194 0
213 193 0
345 193 0
360 193 0
373 193 0
380 193 0
386 193 0
398 193 0
401 193 0
34 192 0
178 192 0
219 192 0
286 192 0
349 192 0
354 192 0
357 192 0
367 192 0
370 192 0
375 192 0
378 192 0
383 192 0
403 192 0
407 192 0
36 191 0
247 191 0
281 191 0
346 191 0
351 191 0
364 191 0
400 191 0
405 191 0
33 190 0
215 190 0
218 190 0
250 190 0
265 190 0
290 190 0
361 190 0
368 190 0
371 190 0
374 190 0
379 190 0
396 190 0
23 189 0
31 189 0
177 189 0
246 189 0
252 189 0
256 189 0
262 189 0
267 189 0
[...]
CELL_DATA 1655
COLOR_SCALARS lut 1
0.220396
0.218453
0.228709
0.289911
0.27495
0.238616
0.232311
0.241194
0.323422
0.236464
0.269524
0.270522
0.253027
0.296848
0.267561
0.304177
0.315844
0.286296
0.296697
0.350693
0.326127
0.377248
0.353449
0.41322
0.378842
0.466574
0.440191
0.402015
0.445378
0.404499
0.423407
0.429635
0.377208
0.4186
0.417965
0.392717
0.351729
0.318184
0.417933
0.301334
0.422655
0.410153
0.456782
0.412857
0.323998
0.419547
0.43309
0.417623
0.336555
0.417919
0.445152
0.432617
0.378624
0.46531
0.448612
0.456432
0.479263
0.422886
0.433998
0.450069
0.477313
0.455697
0.427287
0.497449
0.440818
0.444435
0.491442
0.438786
0.443144
0.475823
0.446462
0.447571
0.459639
0.451293
0.449671
0.465735
0.478012
0.417813
0.441947
0.51303
0.419306
0.425413
0.393566
0.380759
0.50975
0.375196
0.268819
0.308342
0.351137
0.403919
0.374008
0.385722
0.501588
0.369138
0.477229
0.352401
0.435767
0.342618
0.41199
0.334604
0.348766
0.3304
0.324926
0.343415
0.399477
0.326102
0.344236
0.395624
0.383244
0.329726
0.380191
0.384632
0.48063
0.386841
0.405659
0.346303
0.348131
0.351562
0.347807
0.446617
0.368615
0.388971
0.337218
0.349933
0.353499
0.326573
0.349189
0.353815
0.35438
0.355988
0.359467
0.367165
0.369151
0.36214
0.378483
0.320797
0.369272
0.374932
0.409041
0.360651
0.363495
0.336404
0.34575
0.361976
0.255474
0.331539
0.338869
0.286257
0.328738
0.331073
0.309447
0.349944
0.310344
0.321618
0.292299
0.267585
0.325326
0.30866
0.346605
0.305346
0.31528
0.292984
0.253519
0.365407
0.31045
0.291785
0.296236
0.301303
0.306508
0.305636
0.297613
0.259113
0.229334
0.326084
0.299213
0.343661
0.299533
0.294016
0.295453
0.313561
0.300501
0.22584
0.325626
0.21199
0.337598
0.318156
0.312647
0.225233
0.332584
0.44019
0.36461
0.377922
0.354436
0.315976
0.28896
0.389192
0.360784
0.344626
0.316286
0.270178
0.338009
0.288215
0.233487
0.320128
0.273592
0.251303
0.221666
0.408021
0.364265
0.199665
0.262061
0.210343
0.420661
0.228517
0.195674
0.358958
0.328768
0.277906
0.217408
0.417929
0.254507
0.369638
0.226721
0.198417
0.244076
0.209764
0.368074
0.358868
0.198216
0.27056
0.267281
0.214806
0.25506
0.255282
0.269307
0.311074
0.206947
0.279793
0.235818
0.247953
0.294825
0.213646
0.239466
0.2393
0.277339
0.224107
0.233663
0.236003
0.323634
0.266949
0.230948
0.211471
0.244851
0.231424
0.256905
0.248884
0.34465
0.226797
0.233061
0.246194
0.262994
0.237102
0.222006
0.232732
0.285543
0.215279
0.22509
0.229544
0.237587
0.321135
0.237598
0.299346
0.270245
0.226198
0.222051
0.22693
0.30001
0.285953
0.260485
0.245822
0.22312
0.275564
0.30105
0.258306
0.311131
0.288455
0.257576
0.256871
0.317436
0.224858
0.251733
0.245544
0.217551
0.253852
0.256123
0.262499
0.320577
0.223872
0.246927
0.314144
0.26021
0.230471
0.216769
0.215452
0.244043
0.253972
0.259324
0.270159
0.29856
0.272476
0.238788
0.263246
0.268835
0.284993
0.221694
0.240435
0.271771
0.417562
0.342651
0.300007
0.267325
0.227547
0.232817
0.281847
0.287839
0.246305
0.284117
0.291113
0.4368
0.372395
0.295175
0.301052
0.36364
0.260209
0.252295
0.243716
0.356513
0.414652
0.262585
0.366978
0.250814
0.238396
0.245671
0.243172
0.240836
0.242351
0.25139
0.29272
0.266307
0.278618
0.328901
0.36327
0.324889
0.302108
0.282144
0.294057
0.357036
0.402164
0.446581
0.299708
0.305859
0.313268
0.416041
0.45509
0.378376
0.320103
0.413007
0.367889
0.377878
0.329118
0.343264
0.84472
0.344073
0.332491
0.396598
0.350367
0.350291
0.364485
0.389349
0.360715
0.371707
0.340767
0.341568
0.374198
0.342547
0.377117
0.341522
0.360573
0.382789
0.393375
0.338245
0.337549
0.40589
0.376096
0.397532
0.359385
0.332851
0.337962
0.360338
0.39118
0.330809
0.332606
0.336813
0.354842
0.33778
0.336599
0.349419
0.341622
0.350695
0.358377
0.353379
0.356694
0.368346
0.431888
0.408309
0.466567
0.414567
0.401252
0.37624
0.369252
0.379022
0.410556
0.413103
0.388263
0.371708
0.379925
0.399478
0.379132
0.37952
0.385399
0.361322
0.417699
0.400789
0.382115
0.413285
0.354078
0.358517
0.409588
0.391967
0.330714
0.483197
0.352563
0.443311
0.419718
0.403731
0.396722
0.322913
0.323842
0.420941
0.374798
0.342688
0.367165
0.396996
0.366801
0.312261
0.326407
0.401151
0.45121
0.437101
0.41836
0.401702
0.388451
0.343509
0.32819
0.369495
0.400482
0.31493
0.321066
0.430827
0.451816
0.342757
0.321322
0.358982
0.410131
0.321886
0.321246
0.338014
0.327232
0.416534
0.303642
0.421111
0.317701
0.334326
0.328049
0.434883
0.326882
0.334647
0.436907
0.306026
0.322307
0.342178
0.463134
0.35793
0.346656
0.495414
0.352031
0.518832
0.323131
0.435472
0.546284
0.376142
0.354262
0.624549
0.585297
0.727491
0.405259
0.349756
0.564796
0.506203
0.371144
0.354876
0.472143
0.510197
0.552065
0.592805
0.63376
0.352551
0.434785
0.363692
0.502882
0.428219
0.40108
0.39603
0.395715
0.379034
0.396648
0.450779
0.404493
0.41697
0.428687
0.421684
0.364272
0.458751
0.482067
0.469436
0.483128
0.498427
0.596787
0.759794
0.532575
0.52825
0.547266
0.794558
0.824929
0.556797
0.749274
0.845836
0.851323
0.836432
0.781568
0.721913
0.649335
0.614228
0.58798
0.540615
0.756658
0.464896
0.491693
0.43233
0.766251
0.433428
0.448721
0.375897
0.432937
0.331319
0.48344
0.796481
0.340989
0.307502
0.430065
0.3399
0.302841
0.317912
0.801456
0.393928
0.343418
0.30626
0.283919
0.482663
0.351236
0.306512
0.284001
0.270952
0.268831
0.295888
0.800304
0.41536
0.375025
0.420159
0.25349
0.405917
0.425463
0.29711
0.380418
0.424388
0.367072
0.318824
0.275554
0.245245
0.336765
0.503452
0.779659
0.412475
0.298707
0.281248
0.271092
0.261304
0.289852
0.39321
0.401734
0.373057
0.356211
0.329211
0.269522
0.242047
0.304912
0.747276
0.388237
0.361243
0.352202
0.334883
0.300218
0.280438
0.262378
0.251734
0.244872
0.391171
0.372524
0.348011
0.313908
0.292515
0.288709
0.278258
0.248418
0.493389
0.458938
0.45781
0.705531
0.358721
0.337267
0.332629
0.330578
0.300388
0.323143
0.32064
0.324532
0.319425
0.303274
0.302388
0.253114
0.247187
0.385556
0.473945
0.658643
0.33391
0.310153
0.311415
0.322372
0.311193
0.480707
0.420371
0.439452
0.314083
0.320575
0.253794
0.253008
0.369293
0.408851
0.427514
0.325669
0.305445
0.284513
0.325232
0.249953
0.386958
0.463601
0.399061
0.573867
0.275312
0.30949
0.322581
0.247413
0.254185
0.425308
0.39259
0.439687
0.432437
0.396561
0.302437
0.264895
0.396566
0.45169
0.409652
0.34767
0.311885
0.258709
0.3098
0.247174
0.254453
0.394092
0.316349
0.255139
0.250288
0.415229
0.448094
0.536574
0.254371
0.246588
0.444231
0.409959
0.274223
0.256347
0.239615
0.312017
0.255495
0.370187
0.407064
0.519349
0.23736
0.301059
0.337382
0.246697
0.453747
0.428584
0.260183
0.648383
0.617943
0.273265
0.231164
0.274108
0.304008
0.249236
0.491612
0.537347
0.815825
0.748703
0.689249
0.407574
0.233878
0.252489
0.880403
0.261934
0.230328
0.242058
0.249572
0.991252
0.951708
0.612496
0.249099
0.236199
0.263125
0.280953
1
0.241681
0.280617
0.254832
0.515225
0.575755
0.959261
0.975165
0.98891
0.388666
0.293204
0.247352
0.29173
0.927934
0.627148
0.259124
0.239709
0.261715
0.328824
0.311821
0.262651
0.253595
0.250405
0.895666
0.362109
0.25112
0.340693
0.299575
0.273499
0.781965
0.852487
0.636974
0.354927
0.26012
0.345176
0.644482
0.355621
0.249043
0.272216
0.263852
0.702152
0.635454
0.250159
0.260257
0.271819
0.348508
0.68143
0.609767
0.352132
0.252983
0.286449
0.285188
0.270396
0.34771
0.277077
0.511389
0.544181
0.617372
0.3391
0.258895
0.307483
0.439782
0.739299
0.266283
0.287428
0.307985
0.58941
0.328985
0.252872
0.470048
0.305548
0.346135
0.785493
0.342192
0.449461
0.334668
0.415578
0.423209
0.535206
0.826644
0.333764
0.336608
0.38051
0.399165
0.284286
0.3933
0.486678
0.309679
0.33405
0.334699
0.353995
0.377612
0.220174
0.847703
0.389674
0.450192
0.292186
0.257541
0.260966
0.332933
0.251273
0.269408
0.339382
0.435467
0.201204
0.417594
0.393839
0.382938
0.286288
0.280828
0.336816
0.41701
0.860331
0.262696
0.247669
0.339475
0.352108
0.239704
0.267642
0.378071
0.378719
0.417127
0.262499
0.323309
0.349051
0.38779
0.394311
0.271825
0.248336
0.246445
0.348577
0.187437
0.282542
0.300185
0.356905
0.855417
0.229864
0.263994
0.301721
0.328585
0.362917
0.386108
0.24684
0.26643
0.326026
0.361172
0.202635
0.242537
0.281357
0.30337
0.378518
0.247652
0.250704
0.273057
0.218044
0.386255
0.240065
0.278638
0.331095
0.376239
0.202886
0.23355
0.283341
0.347296
0.829368
0.377692
0.251042
0.238238
0.342321
0.37244
0.27654
0.321528
0.383949
0.387269
0.237825
0.245094
0.369371
0.26235
0.420118
0.808041
0.396189
0.368803
0.254009
0.234594
0.256619
0.37702
0.403337
0.38659
0.265432
0.235998
0.27349
0.36185
0.278141
0.240574
0.229737
0.238167
0.286091
0.408803
0.755419
0.403203
0.501375
0.338406
0.298939
0.248087
0.230124
0.257426
0.47159
0.352288
0.352451
0.264298
0.231192
0.226109
0.275443
0.299506
0.3513
0.713975
0.407623
0.454776
0.34712
0.35406
0.35245
0.303488
0.282312
0.249799
0.235964
0.22568
0.318613
0.356737
0.375074
0.382419
0.417088
0.348658
0.344681
0.316452
0.293134
0.343522
0.334354
0.442729
0.418094
0.374846
0.383941
0.428871
0.324886
0.289216
0.270563
0.25289
0.231886
0.260553
0.303303
0.316334
0.641607
0.365966
0.367406
0.370588
0.369758
0.366908
0.374505
0.38342
0.339858
0.337189
0.329865
0.303509
0.238925
0.290334
0.319965
0.301614
0.47343
0.359695
0.36089
0.360347
0.359909
0.372957
0.364939
0.346676
0.332882
0.276106
0.259041
0.315477
0.35544
0.355134
0.344947
0.343881
0.338144
0.323759
0.294348
0.24651
0.240013
0.255645
0.280385
0.309483
0.352571
0.332366
0.328653
0.345762
0.348192
0.320333
0.276042
0.259483
0.242552
0.236448
0.35823
0.319467
0.364973
0.352858
0.350236
0.321056
0.324428
0.366428
0.334719
0.342664
0.530557
0.524073
0.369436
0.317516
0.318067
0.360007
0.276484
0.26078
0.245659
0.271891
0.320268
0.310981
0.370865
0.39182
0.265937
0.392316
0.562549
0.350358
0.347419
0.394418
0.356701
0.287807
0.272204
0.261257
0.259166
0.383002
0.36953
0.34635
0.311755
0.336251
0.27459
0.26861
0.276618
0.492714
0.471273
0.314672
0.310423
0.321926
0.434878
0.376227
0.624743
0.349993
0.359833
0.299722
0.41243
0.457182
0.368159
0.319145
0.321248
0.342371
0.321228
0.303871
0.315944
0.381824
0.650057
0.35181
0.358434
0.358648
0.35942
0.351671
0.32493
0.336008
0.341992
0.389187
0.351725
0.46947
0.666752
0.354316
0.361754
0.344471
0.36276
0.396758
0.360318
0.353714
0.67184
0.378809
0.340353
0.398404
0.355382
0.439505
0.378528
0.363863
0.353241
0.379944
0.379339
0.364929
0.3573
0.430542
0.663072
0.399173
0.371557
0.356472
0.39668
0.395416
0.382123
0.422384
0.401068
0.382301
0.445286
0.643074
0.417921
0.403736
0.374573
0.363222
0.388664
0.424629
0.436177
0.415321
0.364299
0.59867
0.409198
0.393411
0.462313
0.390238
0.373308
0.440725
0.400842
0.475955
0.374642
0.371041
0.429584
0.523776
0.40687
0.507027
0.412031
0.52849
0.373682
0.378999
0.418647
0.406564
0.411552
0.428042
0.403455
0.373219
0.44545
0.41377
0.392435
0.398829
0.401079
0.404556
0.393549
0.403438
0.418485
0.43029
0.412129
0.392493
0.365184
0.342101
0.394524
0.377336
0.343738
0.429263
0.422611
0.413317
0.395853
0.393676
0.421878
0.406082
0.392462
0.339863
0.366757
0.432923
0.35529
0.396459
0.441082
0.312754
0.430696
0.40182
0.397683
0.296665
0.422412
0.409066
0.402257
0.387233
0.373125
0.360375
0.322345
0.376111
0.398909
0.346752
0.470276
0.439442
0.334157
0.400912
0.414617
0.284463
0.366471
0.397087
0.42925
0.357508
0.422618
0.319693
0.286641
0.275736
0.384947
0.411675
0.294916
0.411466
0.477671
0.455648
0.384264
0.318033
0.341174
0.400237
0.45947
0.427422
0.44245
0.278275
0.316998
0.355487
0.436867
0.412392
0.458484
0.420899
0.420505
0.415015
0.426678
0.404754
0.414764
0.445086
0.417405
0.39871
0.35354
0.404433
0.399407
0.265047
0.273027
0.283674
0.503316
0.440578
0.428553
0.342332
0.423148
0.289928
0.416723
0.450056
0.446623
0.418003
0.339066
0.390044
0.378973
0.380957
0.375561
0.272682
0.342499
0.438003
0.435069
0.442368
0.439002
0.415295
0.371759
0.414166
0.360634
0.351884
0.340643
0.302363
0.284684
0.276762
0.291532
0.312874
0.43736
0.371334
0.367255
0.392754
0.374181
0.297502
0.286685
0.285818
0.297434
0.321152
0.42287
0.417092
0.39538
0.374334
0.414999
0.378514
0.38046
0.375261
0.364345
0.339054
0.317162
0.290877
0.303493
0.464037
0.414107
0.398045
0.383825
0.384895
0.381706
0.374432
0.333252
0.302241
0.419109
0.40291
0.418219
0.404861
0.392748
0.377152
0.422026
0.310193
0.422866
0.318835
0.416
0.401254
0.319721
0.426448
0.328763
0.328813
0.433546
0.415547
0.42964
0.424672
0.414194
0.401778
0.409956
0.347634
0.426095
0.393904
0.418043
0.40672
0.418208
0.410858
0.377617
0.378447
0.405364
0.398417
0.407222
0.430834
0.46111
0.445039
0.432945
0.458798
0.435894
0.455523
0.461196
0.465371
0.431679
0.442818
0.451064
0.495408
0.464722
0.544952
0.248074
0.284797
0.327385
0.341942
0.488131
0.356977
0.533864
0.584965
0.375224
0.368789
0.372156
0.435541
0.388044
0.375458
0.601832
0.675194
0.347765
0.333493
0.33668
0.469788
0.495269
0.349299
0.344119
0.251198
0.306238
0.353546
0.34451
0.339217
0.330679
0.346885
0.400487
0.343303
0.307589
0.310503
0.317834
0.328983
0.411248
0.332275
0.316058
0.316863
0.318459
0.333695
0.430769
0.461058
0.328262
0.316984
0.291321
0.355588
0.290581
0.293403
0.400455
0.24767
0.335443
0.361095
0.313693
0.299286
0.312269
0.316848
0.296952
0.226752
0.289175
0.317955
0.322656
0.330565
0.339925
0.345661
0.318811
0.309044
0.282446
0.288972
0.327204
0.314335
0.345473
0.278314
0.312221
0.302658
0.332553
0.330498
0.280503
0.282358
0.315822
0.292325
0.309003
0.291765
0.32628
0.313622
0.285916
0.338953
0.333164
0.301477
0.35455
0.304428
0.290158
0.286637
0.309205
0.321502
0.284625
0.28783
0.387318
0.308152
0.270882
0.286167
0.282856
0.293211
0.357181
0.291271
0.28733
0.330213
0.343719
0.312235
0.272096
0.292769
0.298609
0.304396
0.358117
0.318479
0.267464
0.262311
0.282416
0.297846
0.30254
0.387413
0.347868
0.312706
0.306484
0.360839
0.271501
0.286803
0.318567
0.262558
0.348391
0.358496
0.384502
0.336434
0.372471
0.318645
0.278093
0.360678
0.271663
0.335183
0.390666
0.408518
0.396417
0.375542
0.339658
0.407252
0.312519
0.283598
0.333562
0.421393
0.35921
0.335997
0.308264
0.287095
0.287155
0.318687
0.334771
0.368999
0.312079
0.361107
0.308761
0.403096
0.367437
0.346095
0.33553
0.328322
0.355184
0.33634
0.334927
0.349598
0.359335
0.356792
0.384819
0.371312
0.369608
0.372949
0.386091
0.394716
0.40625
0.387684
0.377195
0.372263
0.378527
0.485357
0.335289
0.314413
0.317961
0.494659
0.301662
0.293838
0.275262
0.275938
0.437633
0.395092
0.355651
0.259539
0.272286
0.420151
0.360836
0.376393
0.323805
0.259108
0.243409
0.244686
0.419019
0.339235
0.253509
0.232647
0.238452
0.313729
0.245291
0.289056
0.225623
0.421532
0.391147
0.375769
0.373302
0.373816
0.375081
0.375901
0.376192
0.376477
0.376641
0.376725
0.376853
0.376979
0.377207
0.377429
0.377775
0.378073
0.378105
0.377718
0.376481
0.373693
0.368375
0.359226
0.344685
0.323413
0.295421
0.263742
0.232026
0.251051
0.22172
0.236045
0.342778
0.218043
0.248059
0.213547
0.229541
0.202799
0.281743
