# vtk DataFile Version 1.0
Unstructured Grid Example
ASCII

DATASET UNSTRUCTURED_GRID
POINTS 10047 float
41 513 0
42 513 0
44 513 0
45 513 0
46 513 0
50 513 0
51 513 0
56 513 0
57 513 0
59 513 0
60 513 0
41 512 0
46 512 0
49 512 0
50 512 0
51 512 0
56 512 0
57 512 0
59 512 0
60 512 0
41 511 0
46 511 0
47 511 0
48 511 0
49 511 0
50 511 0
51 511 0
56 511 0
59 511 0
60 511 0
41 510 0
46 510 0
47 510 0
48 510 0
51 510 0
52 510 0
53 510 0
55 510 0
56 510 0
40 509 0
41 509 0
50 509 0
51 509 0
52 509 0
53 509 0
54 509 0
55 509 0
56 509 0
40 508 0
48 508 0
49 508 0
50 508 0
51 508 0
54 508 0
55 508 0
56 508 0
40 507 0
48 507 0
49 507 0
55 507 0
56 507 0
39 506 0
40 506 0
48 506 0
49 506 0
55 506 0
56 506 0
39 505 0
49 505 0
38 504 0
39 504 0
49 504 0
50 504 0
51 504 0
52 504 0
36 503 0
37 503 0
38 503 0
39 503 0
49 503 0
50 503 0
51 503 0
52 503 0
36 502 0
37 502 0
52 502 0
36 501 0
52 501 0
53 501 0
35 500 0
36 500 0
52 500 0
53 500 0
35 499 0
36 499 0
52 499 0
53 499 0
34 498 0
35 498 0
52 498 0
53 498 0
33 497 0
34 497 0
53 497 0
54 497 0
32 496 0
33 496 0
34 496 0
53 496 0
54 496 0
31 495 0
32 495 0
33 495 0
53 495 0
54 495 0
31 494 0
32 494 0
53 494 0
54 494 0
31 493 0
32 493 0
33 493 0
54 493 0
32 492 0
33 492 0
54 492 0
55 492 0
32 491 0
33 491 0
55 491 0
32 490 0
33 490 0
54 490 0
55 490 0
33 489 0
54 489 0
55 489 0
56 489 0
33 488 0
34 488 0
55 488 0
56 488 0
33 487 0
34 487 0
55 487 0
56 487 0
33 486 0
34 486 0
55 486 0
501 486 0
502 486 0
503 486 0
504 486 0
505 486 0
506 486 0
507 486 0
508 486 0
509 486 0
510 486 0
511 486 0
34 485 0
53 485 0
54 485 0
55 485 0
498 485 0
499 485 0
500 485 0
501 485 0
502 485 0
503 485 0
504 485 0
505 485 0
506 485 0
507 485 0
508 485 0
509 485 0
510 485 0
511 485 0
34 484 0
53 484 0
54 484 0
55 484 0
497 484 0
498 484 0
499 484 0
500 484 0
501 484 0
511 484 0
34 483 0
53 483 0
497 483 0
498 483 0
499 483 0
31 482 0
32 482 0
33 482 0
34 482 0
53 482 0
492 482 0
493 482 0
494 482 0
495 482 0
496 482 0
497 482 0
498 482 0
510 482 0
511 482 0
31 481 0
32 481 0
53 481 0
492 481 0
493 481 0
494 481 0
495 481 0
496 481 0
510 481 0
511 481 0
31 480 0
32 480 0
52 480 0
53 480 0
491 480 0
492 480 0
493 480 0
494 480 0
495 480 0
511 480 0
31 479 0
52 479 0
490 479 0
491 479 0
492 479 0
493 479 0
494 479 0
511 479 0
30 478 0
31 478 0
52 478 0
489 478 0
490 478 0
491 478 0
492 478 0
511 478 0
30 477 0
31 477 0
51 477 0
52 477 0
487 477 0
488 477 0
489 477 0
490 477 0
491 477 0
511 477 0
29 476 0
30 476 0
51 476 0
52 476 0
486 476 0
487 476 0
488 476 0
489 476 0
29 475 0
30 475 0
52 475 0
485 475 0
486 475 0
487 475 0
488 475 0
27 474 0
28 474 0
29 474 0
52 474 0
53 474 0
484 474 0
485 474 0
487 474 0
488 474 0
489 474 0
490 474 0
491 474 0
27 473 0
28 473 0
52 473 0
53 473 0
484 473 0
485 473 0
487 473 0
488 473 0
489 473 0
490 473 0
491 473 0
26 472 0
27 472 0
52 472 0
53 472 0
485 472 0
486 472 0
487 472 0
488 472 0
489 472 0
490 472 0
491 472 0
26 471 0
27 471 0
52 471 0
53 471 0
485 471 0
486 471 0
487 471 0
489 471 0
490 471 0
26 470 0
53 470 0
54 470 0
485 470 0
486 470 0
26 469 0
53 469 0
54 469 0
485 469 0
25 468 0
26 468 0
53 468 0
54 468 0
485 468 0
23 467 0
24 467 0
25 467 0
26 467 0
53 467 0
485 467 0
486 467 0
23 466 0
24 466 0
25 466 0
53 466 0
54 466 0
485 466 0
486 466 0
21 465 0
22 465 0
23 465 0
53 465 0
54 465 0
485 465 0
486 465 0
20 464 0
21 464 0
22 464 0
23 464 0
53 464 0
54 464 0
485 464 0
486 464 0
487 464 0
19 463 0
20 463 0
54 463 0
485 463 0
486 463 0
487 463 0
19 462 0
54 462 0
55 462 0
485 462 0
486 462 0
487 462 0
18 461 0
19 461 0
55 461 0
485 461 0
486 461 0
17 460 0
18 460 0
55 460 0
484 460 0
485 460 0
15 459 0
16 459 0
17 459 0
55 459 0
482 459 0
483 459 0
484 459 0
15 458 0
16 458 0
55 458 0
480 458 0
481 458 0
482 458 0
483 458 0
15 457 0
55 457 0
479 457 0
480 457 0
481 457 0
14 456 0
15 456 0
55 456 0
56 456 0
57 456 0
477 456 0
478 456 0
479 456 0
480 456 0
13 455 0
14 455 0
55 455 0
56 455 0
57 455 0
476 455 0
477 455 0
478 455 0
479 455 0
12 454 0
13 454 0
55 454 0
56 454 0
57 454 0
476 454 0
477 454 0
478 454 0
11 453 0
12 453 0
54 453 0
55 453 0
476 453 0
477 453 0
10 452 0
11 452 0
50 452 0
51 452 0
53 452 0
54 452 0
55 452 0
475 452 0
476 452 0
9 451 0
10 451 0
49 451 0
50 451 0
51 451 0
52 451 0
53 451 0
54 451 0
475 451 0
476 451 0
0 450 0
1 450 0
2 450 0
3 450 0
4 450 0
5 450 0
6 450 0
7 450 0
8 450 0
9 450 0
10 450 0
48 450 0
49 450 0
51 450 0
52 450 0
53 450 0
54 450 0
475 450 0
48 449 0
49 449 0
475 449 0
48 448 0
49 448 0
475 448 0
48 447 0
49 447 0
475 447 0
48 446 0
49 446 0
475 446 0
49 445 0
475 445 0
49 444 0
50 444 0
475 444 0
476 444 0
49 443 0
50 443 0
475 443 0
476 443 0
49 442 0
50 442 0
476 442 0
477 442 0
478 442 0
50 441 0
478 441 0
50 440 0
51 440 0
478 440 0
50 439 0
51 439 0
478 439 0
479 439 0
43 438 0
44 438 0
51 438 0
478 438 0
479 438 0
42 437 0
43 437 0
44 437 0
45 437 0
50 437 0
51 437 0
478 437 0
479 437 0
42 436 0
43 436 0
44 436 0
45 436 0
46 436 0
47 436 0
48 436 0
49 436 0
50 436 0
51 436 0
478 436 0
479 436 0
42 435 0
43 435 0
44 435 0
46 435 0
47 435 0
48 435 0
49 435 0
50 435 0
54 435 0
55 435 0
477 435 0
478 435 0
42 434 0
43 434 0
44 434 0
49 434 0
50 434 0
51 434 0
52 434 0
53 434 0
54 434 0
55 434 0
56 434 0
476 434 0
477 434 0
478 434 0
479 434 0
42 433 0
43 433 0
51 433 0
56 433 0
57 433 0
473 433 0
474 433 0
475 433 0
476 433 0
477 433 0
478 433 0
479 433 0
42 432 0
51 432 0
52 432 0
56 432 0
57 432 0
473 432 0
474 432 0
479 432 0
480 432 0
481 432 0
25 431 0
26 431 0
33 431 0
34 431 0
41 431 0
42 431 0
51 431 0
52 431 0
55 431 0
56 431 0
473 431 0
474 431 0
475 431 0
476 431 0
477 431 0
478 431 0
479 431 0
480 431 0
481 431 0
13 430 0
14 430 0
15 430 0
24 430 0
25 430 0
26 430 0
32 430 0
33 430 0
34 430 0
35 430 0
40 430 0
41 430 0
42 430 0
51 430 0
52 430 0
53 430 0
54 430 0
55 430 0
475 430 0
476 430 0
477 430 0
478 430 0
479 430 0
480 430 0
11 429 0
12 429 0
13 429 0
14 429 0
15 429 0
24 429 0
25 429 0
26 429 0
32 429 0
33 429 0
34 429 0
35 429 0
36 429 0
37 429 0
40 429 0
41 429 0
42 429 0
43 429 0
476 429 0
477 429 0
478 429 0
479 429 0
10 428 0
11 428 0
12 428 0
13 428 0
15 428 0
16 428 0
17 428 0
18 428 0
19 428 0
20 428 0
21 428 0
22 428 0
23 428 0
24 428 0
25 428 0
26 428 0
27 428 0
31 428 0
32 428 0
33 428 0
35 428 0
36 428 0
37 428 0
38 428 0
39 428 0
40 428 0
41 428 0
42 428 0
43 428 0
475 428 0
476 428 0
477 428 0
478 428 0
9 427 0
10 427 0
23 427 0
24 427 0
25 427 0
27 427 0
28 427 0
31 427 0
39 427 0
40 427 0
41 427 0
42 427 0
43 427 0
44 427 0
475 427 0
476 427 0
477 427 0
9 426 0
10 426 0
23 426 0
24 426 0
27 426 0
28 426 0
29 426 0
30 426 0
31 426 0
42 426 0
43 426 0
44 426 0
474 426 0
475 426 0
476 426 0
9 425 0
474 425 0
475 425 0
9 424 0
473 424 0
474 424 0
8 423 0
9 423 0
473 423 0
474 423 0
7 422 0
8 422 0
473 422 0
474 422 0
7 421 0
8 421 0
473 421 0
474 421 0
475 421 0
0 420 0
6 420 0
7 420 0
474 420 0
475 420 0
0 419 0
1 419 0
5 419 0
6 419 0
474 419 0
475 419 0
0 418 0
1 418 0
2 418 0
3 418 0
4 418 0
5 418 0
475 418 0
476 418 0
477 418 0
476 417 0
477 417 0
477 416 0
477 415 0
478 415 0
474 414 0
475 414 0
476 414 0
477 414 0
478 414 0
471 413 0
472 413 0
473 413 0
474 413 0
475 413 0
476 413 0
477 413 0
471 412 0
472 412 0
473 412 0
474 412 0
509 412 0
510 412 0
511 412 0
471 411 0
472 411 0
473 411 0
507 411 0
508 411 0
509 411 0
510 411 0
511 411 0
469 410 0
470 410 0
471 410 0
472 410 0
473 410 0
474 410 0
484 410 0
485 410 0
486 410 0
507 410 0
508 410 0
509 410 0
510 410 0
511 410 0
469 409 0
470 409 0
471 409 0
472 409 0
473 409 0
474 409 0
483 409 0
484 409 0
485 409 0
486 409 0
500 409 0
501 409 0
502 409 0
503 409 0
507 409 0
508 409 0
469 408 0
470 408 0
471 408 0
472 408 0
473 408 0
474 408 0
483 408 0
484 408 0
485 408 0
486 408 0
487 408 0
492 408 0
493 408 0
495 408 0
496 408 0
497 408 0
498 408 0
499 408 0
500 408 0
501 408 0
502 408 0
503 408 0
504 408 0
505 408 0
506 408 0
507 408 0
508 408 0
468 407 0
469 407 0
470 407 0
472 407 0
473 407 0
474 407 0
482 407 0
483 407 0
484 407 0
485 407 0
486 407 0
487 407 0
488 407 0
489 407 0
490 407 0
491 407 0
492 407 0
493 407 0
494 407 0
495 407 0
496 407 0
497 407 0
498 407 0
499 407 0
503 407 0
504 407 0
505 407 0
506 407 0
511 407 0
468 406 0
469 406 0
470 406 0
471 406 0
477 406 0
478 406 0
481 406 0
482 406 0
483 406 0
484 406 0
485 406 0
486 406 0
487 406 0
488 406 0
489 406 0
490 406 0
491 406 0
492 406 0
493 406 0
494 406 0
495 406 0
509 406 0
510 406 0
511 406 0
468 405 0
469 405 0
470 405 0
471 405 0
472 405 0
473 405 0
474 405 0
476 405 0
477 405 0
478 405 0
479 405 0
480 405 0
481 405 0
482 405 0
487 405 0
488 405 0
489 405 0
509 405 0
510 405 0
469 404 0
470 404 0
471 404 0
472 404 0
473 404 0
474 404 0
475 404 0
476 404 0
477 404 0
478 404 0
479 404 0
480 404 0
481 404 0
509 404 0
510 404 0
469 403 0
470 403 0
471 403 0
472 403 0
473 403 0
474 403 0
475 403 0
476 403 0
477 403 0
478 403 0
479 403 0
508 403 0
509 403 0
510 403 0
511 403 0
469 402 0
470 402 0
471 402 0
472 402 0
473 402 0
474 402 0
475 402 0
476 402 0
478 402 0
479 402 0
508 402 0
509 402 0
510 402 0
511 402 0
470 401 0
471 401 0
472 401 0
473 401 0
474 401 0
511 401 0
470 400 0
471 400 0
461 399 0
462 399 0
463 399 0
455 398 0
456 398 0
457 398 0
458 398 0
459 398 0
460 398 0
461 398 0
462 398 0
463 398 0
455 397 0
456 397 0
457 397 0
458 397 0
459 397 0
460 397 0
461 397 0
462 397 0
463 397 0
493 397 0
494 397 0
495 397 0
454 396 0
455 396 0
456 396 0
457 396 0
460 396 0
461 396 0
462 396 0
463 396 0
490 396 0
491 396 0
492 396 0
493 396 0
494 396 0
495 396 0
496 396 0
454 395 0
455 395 0
456 395 0
457 395 0
460 395 0
489 395 0
490 395 0
491 395 0
492 395 0
493 395 0
494 395 0
495 395 0
496 395 0
497 395 0
498 395 0
454 394 0
455 394 0
456 394 0
457 394 0
458 394 0
459 394 0
460 394 0
488 394 0
489 394 0
490 394 0
491 394 0
497 394 0
498 394 0
458 393 0
459 393 0
460 393 0
488 393 0
489 393 0
490 393 0
497 393 0
498 393 0
489 392 0
490 392 0
491 392 0
492 392 0
493 392 0
494 392 0
495 392 0
496 392 0
497 392 0
498 392 0
[...]
CELL_DATA 10047
COLOR_SCALARS lut 1
0.0453844
0.0447573
0.0441764
0.0441821
0.0443628
0.0464454
0.0472078
0.0527485
0.0544691
0.0588741
0.0616359
0.0468615
0.045463
0.0466477
0.0472896
0.0480382
0.0539596
0.055836
0.0606027
0.0635605
0.0484575
0.0466814
0.046853
0.0471769
0.0476434
0.0482452
0.0489809
0.0553155
0.0625125
0.0656795
0.0501582
0.0480203
0.0481076
0.0483551
0.0500472
0.0509461
0.05204
0.0549395
0.0568215
0.0530433
0.0519486
0.0505308
0.0512463
0.0521689
0.0533215
0.054734
0.0564411
0.058479
0.0549368
0.0510941
0.0513839
0.0518747
0.0525834
0.0562525
0.0580877
0.0602829
0.0568732
0.0526548
0.0528932
0.0598697
0.0622204
0.0602174
0.0588387
0.0543355
0.0545271
0.0617713
0.0642726
0.0621763
0.0562788
0.0657083
0.0641406
0.05814
0.0585179
0.0592081
0.0602523
0.0715231
0.069404
0.0676116
0.0661167
0.0601009
0.0604506
0.0611304
0.0621871
0.0732445
0.0712176
0.0641883
0.0749406
0.0662289
0.0677436
0.0787622
0.0766103
0.0682744
0.0697869
0.0802517
0.0782371
0.0702829
0.0717774
0.0839154
0.0816538
0.0722057
0.0736672
0.0875696
0.085039
0.0754037
0.0773891
0.0911868
0.088367
0.0859904
0.076934
0.0788742
0.0947503
0.0916244
0.0889492
0.078207
0.0800932
0.0948209
0.0918239
0.0791882
0.0810161
0.0946533
0.0917833
0.0893927
0.08164
0.091517
0.0892604
0.0819954
0.0843619
0.0910559
0.0889274
0.0844653
0.090446
0.0884417
0.0821444
0.084438
0.0878619
0.0820911
0.0843612
0.0873118
0.0872507
0.0859842
0.08431
0.087249
0.0866727
0.0855344
0.084347
0.0872818
0.086193
0.0851889
0.0845237
0.0830521
0.0810064
0.0788593
0.0766022
0.0742479
0.071825
0.0693706
0.0669275
0.0645403
0.0622516
0.0600982
0.0850079
0.0810384
0.0826208
0.084879
0.0866906
0.0849381
0.0832481
0.0815403
0.0797517
0.0778455
0.0758117
0.0736629
0.0714281
0.0691455
0.0668595
0.0646159
0.0624584
0.0604246
0.0850376
0.0815768
0.0831695
0.0854394
0.0864633
0.0848724
0.0834174
0.0820144
0.0805804
0.0611939
0.085308
0.0823273
0.0848815
0.0836053
0.0824547
0.0882507
0.0870011
0.0862094
0.0858314
0.0832926
0.0927618
0.0902442
0.0881364
0.0864014
0.0849896
0.0838417
0.0828878
0.0657965
0.0640096
0.0884082
0.0873819
0.0844606
0.0905086
0.0883386
0.086583
0.0852004
0.0841367
0.0677501
0.0660066
0.0887382
0.0879506
0.0848096
0.0858032
0.0909623
0.0887013
0.0868938
0.0855033
0.0844834
0.0683465
0.0891927
0.0862828
0.0915925
0.0892117
0.0873195
0.0858859
0.0848696
0.0709789
0.0904001
0.0897176
0.0878516
0.0923921
0.0898645
0.0878544
0.0863405
0.0738461
0.090653
0.0902641
0.0890876
0.089469
0.0965991
0.0933585
0.0906594
0.0885003
0.0868685
0.0768898
0.0913906
0.0908908
0.0907289
0.0910939
0.0979403
0.0944937
0.0915998
0.0892629
0.0912903
0.0911027
0.0926908
0.0994845
0.0958084
0.0926949
0.0901526
0.0922078
0.0914705
0.0911753
0.0942238
0.0951559
0.101255
0.0973271
0.0911897
0.0890012
0.0873978
0.0863657
0.0858784
0.0914804
0.0910576
0.0956533
0.096553
0.0990832
0.0954515
0.0899697
0.088135
0.0868973
0.0862376
0.0861246
0.0913985
0.0908254
0.0969313
0.0977926
0.0938561
0.0911324
0.0890297
0.0875466
0.0866701
0.0863765
0.086629
0.0905721
0.0902916
0.0980043
0.0988211
0.0925414
0.0901355
0.088367
0.0867087
0.086772
0.0899331
0.0995842
0.10102
0.0915086
0.0894178
0.0895198
0.100031
0.101407
0.0907509
0.0892748
0.0893565
0.100113
0.101424
0.0902545
0.0897029
0.0892148
0.08913
0.0894544
0.0998005
0.0900014
0.0888327
0.0893329
0.0891073
0.0892678
0.0990926
0.100259
0.0899729
0.0891042
0.0902697
0.0896051
0.0892746
0.0980181
0.0991096
0.0901517
0.0895811
0.0906773
0.0899924
0.0896012
0.0895275
0.0966287
0.0976474
0.0905226
0.0902499
0.0906662
0.0910981
0.090443
0.0959418
0.0910746
0.0911012
0.0918136
0.0908913
0.0940688
0.0956626
0.0918032
0.0921316
0.0931396
0.0912584
0.0909909
0.0936558
0.0927091
0.0933419
0.0914538
0.0913427
0.0916471
0.0935371
0.093793
0.0913177
0.0913818
0.0914892
0.0897093
0.0953587
0.0945799
0.0944751
0.0909519
0.0913356
0.0879033
0.0986041
0.0968739
0.095781
0.0953425
0.0908004
0.0862737
0.10046
0.0984548
0.0970732
0.0898332
0.0908381
0.0848481
0.0871774
0.0901744
0.105201
0.102325
0.10005
0.0983931
0.0884247
0.0897491
0.0836402
0.0860464
0.0891109
0.107338
0.104185
0.10163
0.0996947
0.0866101
0.0882483
0.0826513
0.0851513
0.0882987
0.106052
0.103196
0.100962
0.0844589
0.0863915
0.0799241
0.0818745
0.104783
0.102219
0.082058
0.0842573
0.0773234
0.07687
0.0777943
0.0792196
0.081299
0.106455
0.103518
0.0795001
0.081933
0.0770869
0.0762059
0.0758962
0.0761936
0.0771217
0.0786935
0.104938
0.102244
0.0545909
0.0571142
0.059804
0.0626171
0.0655048
0.0684174
0.0713078
0.0741353
0.0768717
0.0795024
0.0820266
0.0772244
0.0759524
0.0750615
0.0755186
0.0766059
0.0783312
0.103413
0.0760526
0.0749257
0.101861
0.0749633
0.0739934
0.100266
0.0739399
0.0731364
0.0986177
0.0729632
0.0723334
0.0969141
0.0715645
0.0951682
0.0708167
0.0711096
0.0934073
0.0917934
0.0700882
0.070558
0.0916645
0.0901256
0.0693935
0.0700368
0.0884941
0.0877971
0.087881
0.0695778
0.0864212
0.0692215
0.0707582
0.085014
0.0690125
0.0706981
0.0836655
0.0846698
0.0690683
0.0679502
0.0708264
0.0823789
0.0834204
0.0690924
0.0679411
0.0670417
0.0664404
0.0692232
0.0711921
0.0811572
0.0822341
0.0680219
0.0670965
0.0664207
0.0660383
0.0659849
0.0662927
0.0669961
0.0681328
0.0697396
0.0718444
0.0800114
0.0811246
0.0672772
0.0665823
0.0661336
0.066131
0.066639
0.0675277
0.0688328
0.0705904
0.0824738
0.0866221
0.0785461
0.0789591
0.0669073
0.0664445
0.0662237
0.0699065
0.071813
0.0741818
0.0770262
0.080342
0.0841154
0.0883263
0.0929525
0.0778281
0.0775524
0.0780194
0.0792141
0.0669598
0.0667272
0.0759352
0.0950802
0.100124
0.0819379
0.0795277
0.0778391
0.0768895
0.0766822
0.077208
0.0784491
0.0674789
0.0781098
0.0811716
0.0976049
0.102665
0.0808895
0.0785584
0.0778237
0.0797859
0.08238
0.072269
0.0721235
0.0706099
0.0703262
0.0684849
0.0685038
0.0807202
0.0838848
0.0958125
0.100538
0.0799668
0.0777166
0.0761906
0.0754
0.07534
0.0759933
0.0773345
0.0793304
0.0819392
0.0698482
0.0703122
0.0706974
0.0715756
0.0714906
0.0713942
0.0706316
0.070489
0.0703515
0.0702183
0.0697618
0.0698455
0.0700682
0.0837763
0.0870382
0.0906977
0.094739
0.0991422
0.0755549
0.0748436
0.0748571
0.0755737
0.0769639
0.078991
0.0677402
0.0684811
0.0691136
0.0696496
0.070102
0.0714081
0.0713759
0.0713355
0.0710575
0.0710401
0.0710428
0.0710633
0.0710996
0.0711515
0.0715131
0.0717874
0.0721976
0.0727849
0.0743869
0.0744696
0.0752451
0.0766795
0.0663195
0.0672794
0.068125
0.0688629
0.0700486
0.0705167
0.0709121
0.0712356
0.0714844
0.0716603
0.0717765
0.0718516
0.0719017
0.0719386
0.0719664
0.0719873
0.072006
0.0721222
0.0721911
0.072293
0.072593
0.0727841
0.0729994
0.0732431
0.0735283
0.0738789
0.0743262
0.0749057
0.0756574
0.0745627
0.0739949
0.0741394
0.0749659
0.0649816
0.0661855
0.0730878
0.0731909
0.0732846
0.073455
0.0735423
0.0738774
0.0763538
0.0768611
0.0774628
0.0781924
0.079089
0.0801921
0.0741356
0.0736263
0.0738217
0.0651465
0.066504
0.0749905
0.0751667
0.0756374
0.0757917
0.0759565
0.07614
0.0763549
0.0820447
0.0830667
0.0842903
0.0748856
0.0737034
0.0732398
0.0657514
0.0743771
0.0732332
0.0668062
0.0756446
0.0738174
0.0662828
0.0683158
0.0749964
0.073191
0.0657194
0.0680244
0.0742858
0.0724932
0.0676847
0.0702137
0.0735088
0.0717222
0.0706055
0.0518808
0.0673279
0.0700922
0.0708794
0.0697461
0.0535384
0.0559472
0.0670006
0.0699586
0.0699721
0.0688165
0.0555974
0.0581321
0.0608597
0.063747
0.0667591
0.0698636
0.0678355
0.0672515
0.0672333
0.0661885
0.0660933
0.0649445
0.0638202
0.0640094
0.0651592
0.0638777
0.0630875
0.0627566
0.0628415
0.0710655
0.0683425
0.0660892
0.0643167
0.0630236
0.0621917
0.0617894
0.070149
0.067509
0.0653131
0.06357
0.058504
0.056742
0.0550873
0.069288
0.0667484
0.0646265
0.0593591
0.057623
0.0559411
0.0543403
0.0528416
0.0744518
0.0712853
0.0684853
0.0660661
0.0640373
0.0624015
0.0619128
0.0626817
0.0634887
0.0568413
0.0552525
0.0537187
0.0522638
0.0509057
0.0733673
0.0703875
0.0677539
0.0654767
0.0635619
0.0620088
0.0602194
0.0607672
0.0613674
0.0620019
0.0640262
0.0629824
0.0618024
0.0605049
0.0546764
0.0532151
0.0723296
0.0695591
0.0671143
0.0650014
0.0632223
0.0617729
0.0595611
0.0599628
0.060409
0.0608843
0.0613772
0.0636654
0.063967
0.0641872
0.064041
0.0636991
0.0631661
0.0624606
0.0616032
0.0606109
0.0594983
0.0582808
0.0569795
0.055619
0.0542293
0.0528415
0.0514838
0.0742057
0.0713683
0.0688285
0.0646673
0.0630452
0.0617206
0.059033
0.0592548
0.0595253
0.0598308
0.0601587
0.0605002
0.0608465
0.0611877
0.0615134
0.061811
0.0620627
0.0622447
0.0623267
0.0622764
0.0620675
0.0616866
0.0611378
0.0604383
0.0564459
0.0552163
0.0539317
0.0526199
0.0465724
0.0730837
0.0705131
0.0682239
0.06622
0.0597318
0.0593984
0.0591282
0.0591967
0.0593136
0.0594654
0.0596411
0.0598311
0.0600288
0.0602285
0.0604228
0.0606044
0.0607632
0.0608844
0.0609473
0.060925
0.0607886
0.0476452
0.046535
0.045505
0.0720764
0.0697896
0.067768
0.0660116
0.0645137
0.0632634
0.0622456
0.0608283
0.0603812
0.0600736
0.0598771
0.0597652
0.0597146
0.0597079
0.0599438
0.0599997
0.0600488
0.0466768
0.0455893
0.0692168
0.0674759
0.0659802
0.0647189
0.063677
0.0628356
0.0621735
0.061667
0.0612924
0.0610247
0.060838
0.0607082
0.0606149
0.0458629
0.0447785
0.068805
0.0673535
0.0661271
0.0651111
0.0642866
0.0636312
0.0631212
0.062732
0.0624408
0.0622238
0.0620571
0.0463229
0.0451709
0.0440752
0.0430503
0.0685584
0.0673999
0.0664457
0.0656783
0.065075
0.0646101
0.0642574
0.0639918
0.0636313
0.0634913
0.0457396
0.0445729
0.0434574
0.042409
0.0676078
0.0669234
0.066402
0.0660181
0.0657427
0.0418339
0.0679628
0.0675401
0.0777131
0.0758761
0.0742582
0.0893925
0.0864975
0.0838551
0.0814473
0.0792632
0.0773
0.0755597
0.0740439
0.0727518
0.0858123
0.083161
0.0807784
0.0786447
0.0767472
0.0750807
0.0736451
0.0724391
0.0714585
0.0596863
0.0585051
0.0573569
0.0852175
0.0825078
0.0801031
0.0779802
0.0731214
0.0719777
0.0710653
0.0703768
0.0641675
0.0627634
0.0613711
0.0600068
0.0586811
0.0573995
0.0561661
0.0819742
0.0794995
0.0773416
0.0754754
0.0714259
0.0665436
0.0650094
0.0634599
0.0619194
0.0604077
0.0589395
0.057524
0.0561686
0.0548796
0.0536619
0.0790359
0.0767966
0.0748827
0.073267
0.071924
0.0708343
0.0699856
0.0691716
0.0675705
0.0659128
0.0642303
0.0548669
0.053552
0.0702422
0.0693921
0.068779
0.0703331
0.0686418
0.0668783
0.0549646
0.053549
0.0697566
0.0679078
0.066007
0.0640895
0.0621872
0.060327
0.0585297
0.0568129
0.0551906
0.0536727
0.049719
0.0485491
0.0474159
0.0690048
0.0670231
0.0650106
0.063003
0.0610314
0.0591204
0.0572911
0.0555602
0.0539396
0.0524332
0.0510338
0.0497266
0.0484922
0.0473083
0.0461545
0.0450153
0.0828595
0.0794694
0.0765086
0.0739737
0.0681281
0.0660385
0.0639407
0.0598536
0.0579175
0.0560808
0.0527532
0.0512626
0.0498729
0.0473256
0.0461284
0.0449606
0.043815
0.0426924
0.0415998
0.0405473
0.0880472
0.0839662
0.0803066
0.0770824
0.0742969
0.0719437
0.0700071
0.0549227
0.0532185
0.0516326
0.0474646
0.0462166
0.0450129
0.0438459
0.0427158
0.0416279
0.0405905
0.0854266
0.0814823
0.0779706
0.0700956
0.0683266
0.0556215
0.0538159
0.0490925
0.0477131
0.0464066
0.0451589
0.0439627
0.0428173
0.0417268
0.0406977
0.0397369
0.0918675
0.0872386
0.079191
0.0758181
0.0728961
0.0683865
0.0667651
0.0564363
0.0545292
0.052743
0.0510746
0.0495166
0.0480577
0.0466847
0.0453847
0.0441505
0.0429811
0.0418793
0.0408498
0.0398976
0.0893932
0.0848717
0.0738161
0.0710246
0.0686828
0.0667758
0.0573482
0.0553411
0.053453
0.0516845
0.050032
0.0484877
0.0470409
0.0456805
0.0443997
0.0431972
0.0410357
0.0400829
0.0786441
0.075065
0.0489943
0.0474689
0.0460419
0.042313
0.0412557
0.0402938
0.0766501
0.0731735
0.0736553
0.0749091
0.0495663
0.0479608
0.0464644
0.0450722
0.0437834
0.0425982
0.0415168
0.0405393
0.0747473
0.0713635
0.0728777
0.0742145
0.0402531
0.0405991
0.0409643
0.0413345
0.0563759
0.0549444
0.0538526
0.05307
0.0525641
0.0530706
0.0536174
0.0542787
0.0447787
0.0436222
0.0425966
0.0416943
0.0549785
0.0535986
0.052548
0.0517968
0.0513134
0.0514238
0.0518418
0.0530491
0.0538189
0.05469
0.0556574
0.0567157
0.0578584
0.0590784
0.0603702
0.061734
0.063172
0.0450542
0.0429121
0.0420262
0.0503305
0.0507491
0.0512939
0.0527287
0.0536058
0.0545834
0.0556566
0.0568194
0.0607747
0.0622372
0.0478892
0.0465065
0.045267
0.0498082
0.0503536
0.0584746
0.0598721
0.0613351
0.0479526
0.0466153
0.0454157
0.0443425
0.0433866
0.04863
0.0482663
0.0481252
0.0482933
0.0485962
0.049024
0.0495703
0.056321
0.0576375
0.0590182
0.0479543
0.0466681
0.0455109
0.0444708
0.043539
0.047825
0.0475157
0.0474013
0.0474515
0.0479608
0.0483957
0.0489427
0.0543647
0.0555823
0.0568664
0.0479267
0.0466934
0.0455774
0.0436531
0.0428326
0.0657226
0.0622973
0.0592368
0.0565419
0.0542111
0.0522394
0.0506156
0.0493211
0.0471512
0.0469002
0.0468331
0.0469198
0.0537501
0.0549234
0.0506335
0.0492116
0.0479147
0.0467335
0.045655
0.042945
0.0717648
0.0677555
0.0640991
0.0608039
0.0512387
0.0497235
0.0485289
0.0476295
0.0469968
0.0466005
0.0464093
0.0463912
0.0521715
0.0532224
0.0520029
0.0505426
0.0492015
0.0479707
0.046839
0.0699903
0.066115
0.0503525
0.0489442
0.0478478
0.0470374
0.0464841
0.0461574
0.0460258
0.0460572
0.0464965
0.0468684
0.0473292
0.0478751
0.0485034
0.0492114
0.0499962
0.0508543
0.0517813
0.0584164
0.0566617
0.0549867
0.0534079
0.0519362
0.050574
0.0481499
0.0470646
0.0460459
0.0450843
0.0441787
0.0433333
0.0683172
0.0645806
0.0495687
0.048264
0.0472625
0.046538
0.0460616
0.0458025
0.0457292
0.046318
0.0467102
0.0471814
0.0477271
0.0483444
0.0490301
0.0579872
0.0563825
0.0437183
0.0667313
0.0631384
0.0488724
0.0476673
0.0467566
0.0461139
0.0457105
0.0455158
0.0462023
0.0466151
0.0470971
0.0476428
0.0482485
0.0489104
0.0592429
0.0577542
0.065215
0.0617717
0.0586653
0.0514092
0.0496679
0.0482507
0.0471414
0.0463171
0.0457517
0.0454168
0.0457663
0.0461291
0.0465613
0.047053
0.0607902
0.061758
0.0627736
0.0590761
0.0577669
0.0604631
0.0575042
0.0548805
0.0525927
0.0506377
0.0490086
0.0476939
0.0459357
0.0454433
0.0451724
0.0450934
0.0451754
0.0453863
0.0456969
0.0460843
0.0590886
0.0599751
0.0609251
0.059192
0.0580704
0.0538603
0.0528984
0.053908
0.0517531
0.0499207
0.0449687
0.0449405
0.0450648
0.0453104
0.0456481
0.0575254
0.0583394
0.0592315
0.0596321
0.0587039
0.0559607
0.0550786
0.0542074
0.044972
0.0452469
0.0611364
0.0604304
0.0574206
0.056646
0.0558568
0.052456
0.0527097
0.0529505
0.0532075
0.0631835
0.0629015
0.0625355
0.062101
0.0592547
0.0585786
0.0517335
0.0519543
0.0521383
0.0523077
0.0524934
0.0527284
0.0637244
0.0637988
0.0614737
0.060886
0.0514385
0.0519856
0.0521646
0.0644639
0.0648044
0.0456635
0.0449618
0.044478
0.0441914
0.0511211
0.0513216
0.0516315
0.0517175
0.0518526
0.0520691
0.0523939
0.0640924
0.0648887
0.0655967
0.0498643
0.048336
0.0470478
0.0459975
0.0451783
0.0445778
0.0441795
0.043963
0.0439077
0.0509752
0.0512344
0.0514257
0.0515514
0.0516246
0.0516712
0.0517266
0.051829
0.0520126
0.0523065
0.0527338
0.0533074
0.0628302
0.0639881
0.0651018
0.0661554
0.0488862
0.047522
0.0454632
0.0447593
0.0437926
0.0491393
0.0496595
0.0501452
0.0505898
0.0513247
0.051596
0.051793
0.0519169
0.0529693
0.0535312
0.05425
0.0597247
0.0610556
0.0624185
0.0637954
0.0651697
0.0548505
0.0528426
0.0510308
0.048007
0.0468033
0.0450175
0.0444259
0.0440207
0.0437026
0.0437534
0.0477306
0.0483487
0.0489628
0.0495595
0.0501272
0.0506573
0.0511428
0.0515759
0.0519469
0.0522444
0.0524602
0.052595
0.0526627
0.0535818
0.054139
0.054863
0.0557493
0.0567863
0.0579581
0.0592458
0.0606305
0.0620941
0.0553336
0.0533387
0.0515369
0.0499215
0.0484922
0.0472519
0.0462033
0.045347
0.0446807
0.0441972
0.0438847
0.0437273
0.0437074
0.0475072
0.0481788
0.0534591
0.0536162
0.0536975
0.0537317
0.0537575
0.0545942
0.0551526
0.0578754
0.0591072
0.0604774
0.0538025
0.0489779
0.047724
0.0466455
0.0457445
0.045021
0.0444724
0.0473565
0.0480755
0.0488268
0.0548129
0.0550032
0.0551574
0.0551904
0.0565871
0.0941103
0.0893143
0.0847972
0.0805668
0.0766257
0.0695844
0.0664589
0.0635766
0.0609245
0.0584954
0.0562849
0.0542874
0.0524954
0.0471361
0.0462096
0.0454469
0.0448476
0.0472797
0.0480338
0.0488417
0.0551867
0.0557382
0.0561926
0.0565378
0.0567725
0.0569113
0.056984
0.0570316
0.0571005
0.0572366
0.0574835
0.0578793
0.0584534
0.0912507
0.0865168
0.0779328
0.0740949
0.0673047
0.0643267
0.0616053
0.0591254
0.0568769
0.0548522
0.0530423
0.0514362
0.0500187
0.0487727
0.0476846
0.0467482
0.0459621
0.0453267
0.0448415
0.0480549
0.0489024
0.0570567
0.0576976
0.0582315
0.0586446
0.0589354
0.0591182
0.0592234
0.0592929
0.0887039
0.0840388
0.0796757
0.0756247
0.06251
0.0599431
0.057628
0.0555518
0.0537037
0.0520711
0.0490141
0.0499677
0.0600138
0.0606418
0.0611367
0.0614959
0.0617337
0.0738468
0.076119
0.0818735
0.077595
0.0610081
0.0585907
0.056434
0.0528425
0.0513778
0.0491984
0.0501651
0.0512352
0.0753252
0.0775395
0.0799396
0.0555359
0.0537835
0.0522647
0.05096
0.0486689
0.0494931
0.0504436
0.0515203
0.0723995
0.0737726
0.0793673
0.0816882
0.0842062
0.0533249
0.0519633
0.0508133
0.0499446
0.0508529
0.0519029
0.0745247
0.0754409
0.0766094
0.0780394
0.053136
0.0519313
0.0509345
0.0477267
0.0478653
0.0480961
0.0484127
0.048812
0.0492998
0.0498901
0.0505999
0.0514458
0.079095
0.0800563
0.0493826
0.0491427
0.0489839
0.0489083
0.0489197
0.049022
0.0492159
0.0494977
0.0498629
0.0503105
0.0508489
0.0514949
0.0535254
0.0526472
0.0519645
0.0514438
0.0510514
0.0507583
0.0505446
0.0503267
0.0503249
0.0615741
0.0594446
0.0576583
0.0561897
0.0550079
0.0540809
0.0533761
0.0602066
0.0618893
0.0637635
0.0658044
0.0613828
0.0594455
0.0578539
0.0565808
0.0555927
0.0548546
0.0629557
0.0667922
0.0689899
0.0737718
0.0762721
0.0613141
0.0595879
0.0582079
0.0571447
0.0563623
0.0659775
0.0679353
0.0701077
0.0724665
0.0775914
0.0802715
0.0613511
0.0598546
0.0587022
0.0578626
0.0572969
0.0569637
0.0582643
0.0596173
0.0597163
0.0725057
0.0744132
0.0765829
0.079009
0.0816703
0.0906903
0.0938952
0.0609662
0.0608637
0.0609992
0.0744313
0.076231
0.0782908
0.0860374
0.0955558
0.0989234
0.0625362
0.062113
0.0620019
0.0621623
0.078269
0.0802179
0.0876751
0.0906665
0.100663
0.104183
0.0636175
0.0631631
0.0630373
0.0844884
0.0868592
0.0895064
0.0924183
0.0955676
0.0641133
0.0639756
0.0752818
0.0760186
0.0768395
0.0915868
0.0943877
0.0648214
0.0650055
0.0789558
0.0797863
0.0807033
0.065777
0.066285
0.0829403
0.0838722
0.0848918
0.16343
0.079305
0.0769007
0.0747098
0.0673458
0.0666805
0.0670138
0.0678445
0.167461
0.0790461
0.0767382
0.0746433
0.0727729
0.0697432
0.0686051
0.0677341
0.0671414
0.0668361
0.0685597
0.069709
0.171543
0.0786997
0.0764915
0.0744919
0.0727154
0.0711729
0.0698732
0.0688243
0.0680367
0.0675211
0.0672866
0.0673397
0.0676839
0.0704353
0.0718967
0.0829412
0.0805398
0.0782758
0.0761808
0.0742822
0.0711515
0.0699434
0.0689068
0.0698838
0.0711359
0.0726527
0.0820984
0.0798706
0.0777619
0.075801
0.0740184
0.0724403
0.0811141
0.0790677
0.0771331
0.080006
0.078128
0.0763716
0.0732529
0.0719323
0.0770816
0.0754852
0.0715437
0.0705559
0.0697684
0.0692019
0.0688711
0.0687848
0.0689481
0.0693646
0.0700381
0.0709744
0.0776524
0.075991
0.0745151
0.0702132
0.0695634
0.06912
0.0689008
0.0689182
0.0691784
0.0696847
0.0704394
0.0714454
0.0727076
0.080703
0.0784921
0.0765838
0.0749409
0.0735304
0.0723252
0.0689897
0.0693551
0.0699603
0.0708062
0.0718934
0.0732241
0.0748025
0.080097
0.0777355
0.0757217
0.0740283
0.0726192
0.0714615
0.0705277
0.0697955
0.0701748
0.0711212
0.0723014
0.0737141
0.0753606
0.0772443
0.0793699
0.0798854
0.0773329
0.0751592
0.0697984
0.0691353
0.0686898
0.0685484
0.0689132
0.0695012
0.0703199
0.0713716
0.0726532
0.08002
0.0824268
0.0773319
0.0749609
0.0683099
0.0687839
0.0694788
0.0704018
0.0715567
0.0729419
0.0745508
0.0763764
0.0807296
0.0777487
0.0751627
0.0729828
0.0675944
0.0677158
0.0680643
0.0686322
0.0694228
0.0704418
0.071693
0.0731763
0.0768129
0.078946
0.0785696
0.0757697
0.0733744
0.0713957
0.0673057
0.0674523
0.0693675
0.0704698
0.0733785
0.0751815
0.0772064
0.0794396
0.0701901
0.0673729
0.0671796
0.067307
0.0693434
0.0705143
0.0693442
0.0675445
0.0672472
0.068399
0.0693674
0.0705912
0.0720602
0.0688256
0.0679591
0.0675181
0.0674775
0.0684718
0.0694445
0.0706986
0.0685953
0.0679829
0.0678013