# vtk DataFile Version 1.0
Unstructured Grid Example
ASCII

DATASET UNSTRUCTURED_GRID
POINTS 2114 float
1 513 0
4 513 0
7 513 0
11 513 0
14 513 0
17 513 0
22 513 0
25 513 0
28 513 0
33 513 0
38 513 0
42 513 0
46 513 0
50 513 0
54 513 0
59 513 0
62 513 0
66 513 0
71 513 0
74 513 0
79 513 0
82 513 0
85 513 0
91 513 0
96 513 0
101 513 0
105 513 0
111 513 0
117 513 0
121 513 0
130 513 0
135 513 0
144 513 0
149 513 0
157 513 0
164 513 0
170 513 0
181 513 0
191 513 0
200 513 0
210 513 0
222 513 0
231 513 0
239 513 0
247 513 0
256 513 0
263 513 0
271 513 0
278 513 0
288 513 0
298 513 0
307 513 0
314 513 0
322 513 0
330 513 0
337 513 0
345 513 0
351 513 0
359 513 0
365 513 0
372 513 0
378 513 0
387 513 0
394 513 0
402 513 0
407 513 0
412 513 0
418 513 0
422 513 0
426 513 0
430 513 0
435 513 0
439 513 0
444 513 0
448 513 0
452 513 0
456 513 0
461 513 0
465 513 0
468 513 0
472 513 0
475 513 0
479 513 0
484 513 0
487 513 0
492 513 0
495 513 0
498 513 0
501 513 0
504 513 0
509 513 0
512 513 0
57 512 0
0 511 0
41 511 0
48 511 0
51 511 0
60 511 0
46 510 0
512 510 0
54 509 0
40 508 0
49 508 0
56 508 0
512 507 0
0 506 0
48 506 0
55 506 0
39 504 0
49 504 0
52 504 0
512 504 0
0 502 0
37 502 0
52 501 0
36 500 0
0 499 0
53 499 0
512 499 0
34 498 0
0 496 0
53 496 0
512 496 0
31 495 0
0 493 0
33 493 0
54 493 0
512 493 0
0 490 0
32 490 0
54 490 0
512 490 0
34 488 0
56 488 0
512 487 0
504 486 0
0 485 0
34 485 0
55 485 0
502 485 0
506 485 0
509 485 0
498 484 0
511 484 0
0 482 0
34 482 0
53 482 0
492 482 0
497 482 0
510 482 0
495 481 0
32 480 0
52 480 0
511 480 0
0 479 0
494 479 0
30 478 0
491 478 0
511 477 0
487 476 0
0 475 0
30 475 0
52 475 0
512 475 0
485 474 0
491 474 0
488 473 0
0 472 0
26 472 0
52 472 0
512 472 0
485 471 0
490 471 0
54 470 0
0 469 0
26 469 0
512 469 0
485 468 0
53 467 0
0 466 0
24 466 0
512 466 0
21 464 0
53 464 0
487 464 0
0 463 0
512 463 0
19 462 0
486 461 0
0 460 0
55 460 0
512 460 0
15 459 0
483 459 0
0 457 0
481 457 0
512 457 0
55 456 0
14 455 0
477 455 0
0 454 0
56 454 0
12 453 0
54 453 0
512 453 0
50 452 0
476 452 0
52 451 0
0 450 0
3 450 0
6 450 0
10 450 0
49 450 0
54 450 0
512 450 0
475 449 0
48 448 0
0 446 0
475 446 0
512 446 0
49 445 0
512 443 0
0 442 0
476 442 0
50 441 0
512 440 0
478 439 0
44 438 0
51 438 0
0 437 0
512 437 0
43 436 0
46 436 0
50 436 0
479 436 0
0 434 0
44 434 0
49 434 0
53 434 0
476 434 0
512 434 0
42 433 0
478 433 0
51 432 0
56 432 0
474 432 0
481 432 0
34 431 0
0 430 0
15 430 0
26 430 0
32 430 0
53 430 0
477 430 0
480 430 0
12 429 0
35 429 0
41 429 0
512 429 0
10 428 0
17 428 0
22 428 0
25 428 0
33 428 0
37 428 0
475 428 0
478 428 0
28 427 0
40 427 0
0 426 0
9 426 0
23 426 0
30 426 0
43 426 0
476 426 0
512 426 0
474 424 0
0 423 0
9 423 0
512 422 0
8 421 0
473 421 0
0 420 0
6 420 0
475 419 0
512 419 0
1 418 0
4 418 0
477 418 0
512 415 0
0 414 0
478 414 0
471 413 0
475 413 0
473 412 0
512 412 0
507 411 0
510 411 0
472 410 0
485 410 0
0 409 0
470 409 0
474 409 0
500 409 0
512 409 0
502 408 0
508 408 0
468 407 0
473 407 0
483 407 0
486 407 0
489 407 0
493 407 0
496 407 0
499 407 0
506 407 0
511 407 0
0 406 0
471 406 0
491 406 0
469 405 0
476 405 0
482 405 0
488 405 0
512 405 0
473 404 0
478 404 0
509 404 0
471 403 0
511 403 0
0 402 0
469 402 0
474 402 0
479 402 0
508 402 0
471 400 0
512 400 0
0 399 0
455 398 0
462 398 0
459 397 0
0 396 0
461 396 0
490 396 0
494 396 0
512 396 0
454 394 0
457 394 0
460 394 0
491 394 0
497 394 0
489 393 0
512 393 0
0 392 0
495 392 0
503 392 0
492 391 0
497 391 0
500 391 0
505 391 0
449 390 0
452 390 0
509 390 0
512 390 0
499 389 0
507 389 0
0 388 0
447 388 0
504 388 0
510 388 0
450 387 0
453 387 0
498 387 0
506 387 0
446 386 0
501 386 0
512 386 0
448 385 0
505 385 0
510 385 0
503 384 0
508 384 0
0 383 0
447 383 0
474 383 0
511 382 0
512 380 0
0 379 0
452 378 0
462 378 0
509 378 0
454 377 0
460 377 0
464 377 0
471 377 0
511 377 0
467 376 0
506 376 0
0 375 0
461 375 0
470 375 0
510 375 0
512 375 0
454 374 0
459 374 0
468 374 0
508 374 0
512 374 0
457 373 0
506 373 0
444 372 0
448 372 0
455 372 0
511 372 0
0 371 0
450 371 0
453 371 0
466 371 0
504 371 0
442 370 0
456 370 0
460 370 0
464 370 0
502 370 0
506 370 0
509 370 0
451 369 0
499 369 0
511 369 0
453 368 0
459 368 0
462 368 0
442 367 0
449 367 0
479 367 0
0 366 0
445 366 0
451 366 0
454 366 0
458 366 0
481 366 0
499 366 0
504 366 0
512 366 0
447 365 0
456 365 0
502 365 0
497 364 0
472 363 0
494 363 0
503 363 0
512 363 0
474 362 0
476 361 0
493 361 0
0 360 0
448 360 0
470 360 0
512 360 0
444 359 0
450 359 0
472 359 0
477 359 0
480 359 0
491 359 0
447 358 0
466 358 0
489 358 0
441 357 0
445 357 0
449 357 0
452 357 0
464 357 0
468 357 0
473 357 0
481 357 0
486 357 0
512 357 0
0 356 0
439 356 0
443 356 0
471 356 0
479 356 0
483 356 0
446 355 0
461 355 0
475 355 0
428 354 0
432 354 0
435 354 0
438 354 0
444 354 0
458 354 0
477 354 0
480 354 0
512 354 0
440 353 0
469 353 0
473 353 0
426 352 0
429 352 0
434 352 0
471 352 0
487 352 0
437 351 0
459 351 0
456 350 0
482 350 0
488 350 0
512 350 0
436 349 0
480 349 0
0 348 0
438 348 0
450 348 0
453 348 0
442 347 0
445 347 0
448 347 0
512 347 0
440 346 0
432 345 0
436 345 0
434 344 0
459 344 0
462 344 0
512 344 0
457 343 0
431 342 0
435 342 0
436 340 0
455 340 0
459 340 0
462 340 0
512 340 0
0 339 0
434 339 0
432 338 0
430 337 0
455 337 0
458 337 0
512 337 0
447 336 0
431 335 0
446 334 0
0 333 0
420 333 0
418 332 0
426 332 0
431 332 0
511 332 0
421 331 0
424 331 0
414 330 0
419 330 0
429 330 0
0 329 0
416 329 0
412 328 0
414 327 0
512 327 0
411 326 0
417 326 0
421 326 0
409 325 0
415 325 0
0 324 0
407 324 0
418 324 0
422 324 0
405 323 0
403 322 0
411 322 0
414 322 0
424 322 0
512 322 0
420 321 0
401 320 0
404 320 0
410 320 0
413 320 0
417 320 0
0 319 0
419 319 0
512 319 0
408 318 0
406 317 0
410 317 0
413 317 0
512 316 0
404 315 0
0 314 0
406 314 0
409 314 0
403 313 0
512 313 0
407 312 0
406 310 0
404 309 0
512 309 0
0 307 0
400 306 0
403 306 0
512 304 0
227 303 0
224 302 0
295 302 0
377 302 0
380 302 0
388 302 0
396 302 0
399 302 0
231 301 0
375 301 0
382 301 0
391 301 0
512 301 0
0 300 0
226 300 0
299 300 0
386 300 0
394 300 0
210 299 0
223 299 0
295 299 0
374 299 0
388 299 0
206 298 0
212 298 0
225 298 0
309 298 0
390 298 0
512 298 0
0 297 0
216 297 0
244 297 0
301 297 0
313 297 0
366 297 0
369 297 0
373 297 0
213 296 0
218 296 0
238 296 0
296 296 0
303 296 0
308 296 0
371 296 0
206 295 0
215 295 0
220 295 0
234 295 0
241 295 0
315 295 0
364 295 0
367 295 0
512 295 0
204 294 0
298 294 0
304 294 0
311 294 0
370 294 0
0 293 0
209 293 0
219 293 0
236 293 0
239 293 0
309 293 0
305 292 0
312 292 0
369 292 0
207 291 0
218 291 0
298 291 0
308 291 0
363 291 0
512 291 0
0 290 0
209 290 0
367 290 0
216 289 0
299 289 0
309 289 0
361 289 0
206 288 0
311 288 0
365 288 0
0 287 0
210 287 0
512 287 0
207 286 0
313 286 0
360 286 0
204 285 0
215 285 0
285 285 0
299 285 0
355 285 0
511 285 0
0 284 0
200 284 0
281 284 0
507 284 0
213 283 0
347 283 0
351 283 0
407 283 0
505 283 0
209 282 0
279 282 0
283 282 0
299 282 0
314 282 0
330 282 0
333 282 0
336 282 0
339 282 0
344 282 0
508 282 0
512 282 0
201 281 0
316 281 0
500 281 0
0 280 0
203 279 0
206 279 0
209 279 0
299 279 0
315 279 0
512 279 0
319 278 0
327 278 0
316 277 0
321 277 0
298 276 0
318 276 0
511 276 0
0 275 0
323 275 0
326 275 0
296 273 0
512 273 0
0 272 0
293 272 0
289 271 0
34 269 0
238 269 0
284 269 0
287 269 0
512 269 0
31 268 0
243 268 0
248 268 0
281 268 0
0 267 0
233 267 0
251 267 0
254 267 0
258 267 0
263 267 0
267 267 0
272 267 0
275 267 0
278 267 0
34 266 0
512 265 0
229 264 0
31 263 0
0 262 0
34 262 0
512 262 0
28 261 0
225 261 0
24 260 0
32 260 0
430 260 0
0 259 0
512 259 0
21 258 0
419 258 0
35 257 0
223 257 0
413 257 0
423 257 0
0 256 0
19 256 0
411 256 0
418 256 0
433 256 0
512 256 0
221 255 0
405 255 0
409 255 0
414 255 0
421 255 0
35 254 0
407 254 0
412 254 0
417 254 0
423 254 0
426 254 0
434 254 0
0 253 0
219 253 0
401 253 0
404 253 0
399 252 0
427 252 0
512 252 0
18 251 0
396 251 0
438 251 0
444 251 0
0 250 0
392 250 0
401 250 0
406 250 0
414 250 0
430 250 0
442 250 0
35 249 0
216 249 0
389 249 0
408 249 0
412 249 0
416 249 0
420 249 0
439 249 0
512 249 0
18 248 0
385 248 0
395 248 0
399 248 0
403 248 0
418 248 0
432 248 0
441 248 0
0 247 0
214 247 0
382 247 0
393 247 0
397 247 0
401 247 0
407 247 0
415 247 0
422 247 0
425 247 0
434 247 0
17 246 0
380 246 0
391 246 0
404 246 0
410 246 0
413 246 0
419 246 0
427 246 0
512 246 0
33 245 0
186 245 0
191 245 0
212 245 0
378 245 0
386 245 0
394 245 0
398 245 0
408 245 0
0 244 0
384 244 0
388 244 0
396 244 0
402 244 0
412 244 0
415 244 0
428 244 0
436 244 0
17 243 0
164 243 0
210 243 0
375 243 0
382 243 0
391 243 0
400 243 0
409 243 0
31 242 0
158 242 0
186 242 0
395 242 0
411 242 0
430 242 0
438 242 0
450 242 0
512 242 0
153 241 0
190 241 0
371 241 0
374 241 0
381 241 0
399 241 0
432 241 0
18 240 0
29 240 0
156 240 0
206 240 0
383 240 0
394 240 0
397 240 0
434 240 0
439 240 0
0 239 0
149 239 0
154 239 0
187 239 0
192 239 0
360 239 0
370 239 0
380 239 0
19 238 0
27 238 0
358 238 0
363 238 0
367 238 0
377 238 0
393 238 0
436 238 0
440 238 0
155 237 0
365 237 0
375 237 0
379 237 0
512 237 0
0 236 0
20 236 0
25 236 0
204 236 0
373 236 0
438 236 0
147 235 0
356 235 0
368 235 0
371 235 0
377 235 0
391 235 0
442 235 0
455 235 0
153 234 0
202 234 0
375 234 0
389 234 0
393 234 0
440 234 0
460 234 0
512 234 0
149 233 0
444 233 0
0 232 0
315 232 0
320 232 0
366 232 0
376 232 0
385 232 0
388 232 0
442 232 0
462 232 0
201 231 0
306 231 0
309 231 0
312 231 0
355 231 0
373 231 0
382 231 0
512 231 0
303 230 0
367 230 0
375 230 0
380 230 0
435 230 0
0 229 0
295 229 0
299 229 0
323 229 0
369 229 0
372 229 0
432 229 0
448 229 0
291 228 0
379 228 0
429 228 0
434 228 0
512 228 0
148 227 0
198 227 0
281 227 0
284 227 0
287 227 0
356 227 0
427 227 0
438 227 0
449 227 0
0 226 0
277 226 0
326 226 0
368 226 0
377 226 0
381 226 0
421 226 0
424 226 0
433 226 0
436 226 0
440 226 0
274 225 0
358 225 0
379 225 0
418 225 0
426 225 0
431 225 0
512 225 0
267 224 0
271 224 0
329 224 0
415 224 0
[...]
CELL_DATA 2114
COLOR_SCALARS lut 1
0.0524711
0.0608515
0.0707923
0.0840401
0.0916858
0.0955065
0.0916469
0.0844895
0.0754676
0.0601031
0.0488638
0.0447599
0.0443655
0.0464482
0.0500609
0.0588776
0.0684531
0.0874999
0.119349
0.140727
0.176866
0.197871
0.218031
0.256289
0.287512
0.319187
0.344941
0.384213
0.424339
0.451491
0.511817
0.543676
0.5983
0.628314
0.677191
0.721377
0.759914
0.831009
0.894522
0.944821
0.977492
0.986397
0.987893
0.989724
0.993366
0.997986
1
0.999076
0.997567
0.996066
0.992204
0.978531
0.955629
0.922285
0.887725
0.858205
0.824871
0.799644
0.764363
0.734691
0.695981
0.661302
0.609123
0.569768
0.526253
0.499988
0.474493
0.444786
0.425216
0.405276
0.384728
0.358757
0.338315
0.313802
0.295186
0.27757
0.261014
0.241667
0.226967
0.216263
0.202359
0.192228
0.17914
0.162905
0.152649
0.133347
0.119987
0.105637
0.0909646
0.0767412
0.0565398
0.0477625
0.0558393
0.055671
0.0484603
0.0471797
0.0489838
0.0656833
0.0480232
0.0538204
0.0547373
0.0549401
0.051387
0.0602864
0.0608184
0.0743626
0.0543388
0.061775
0.0641444
0.0581434
0.0602558
0.0672752
0.0923853
0.0712218
0.0662328
0.0766148
0.105933
0.0717816
0.071886
0.0839204
0.118217
0.0769386
0.0695519
0.0947559
0.128081
0.089398
0.0816449
0.0649127
0.134465
0.0904514
0.0821493
0.0603631
0.0859893
0.0872541
0.0581001
0.0766067
0.136326
0.085013
0.084884
0.0797564
0.0714323
0.0646197
0.0848775
0.0611975
0.133027
0.0858364
0.0832976
0.0927673
0.0838467
0.0658004
0.0852054
0.0879558
0.0848146
0.0683505
0.127341
0.0848747
0.0904055
0.0878596
0.0768943
0.0944993
0.117076
0.0911081
0.0926962
0.0815697
0.0973329
0.0858835
0.0881403
0.108163
0.0914039
0.0969371
0.0911532
0.0925469
0.0867772
0.101026
0.0988389
0.0895251
0.100234
0.0902599
0.0998065
0.0895472
0.0891126
0.108636
0.0899977
0.0966344
0.0906715
0.0805472
0.116445
0.0908967
0.0933475
0.0720121
0.0916525
0.123746
0.0913231
0.0945855
0.0643533
0.0970789
0.130548
0.0848531
0.0897544
0.104191
0.0583937
0.0851564
0.0863966
0.0799288
0.138934
0.077328
0.103525
0.0761981
0.0545941
0.0626208
0.071312
0.0820315
0.0759569
0.0783358
0.144535
0.101867
0.0749677
0.0555785
0.0969198
0.150191
0.0715687
0.152175
0.0586461
0.0884994
0.0695819
0.15167
0.0836705
0.0679543
0.0708306
0.059276
0.148584
0.0671005
0.0659888
0.0697437
0.0811294
0.0568922
0.0662276
0.0699106
0.0803468
0.0778327
0.142714
0.0669638
0.0772126
0.0781144
0.0976107
0.0785631
0.0823849
0.0703303
0.052469
0.0707016
0.0713984
0.0706358
0.090703
0.0748615
0.0789957
0.0684851
0.0710675
0.0717917
0.126066
0.0663234
0.0709163
0.0718558
0.0719707
0.0722972
0.0730038
0.0745671
0.0749704
0.0735466
0.0768657
0.0492917
0.0651503
0.074995
0.0761445
0.0830716
0.0732441
0.112524
0.0738218
0.0491562
0.0683199
0.0925653
0.0702179
0.0735132
0.0518839
0.0673319
0.0688206
0.0780083
0.0581356
0.0667631
0.0672373
0.0619369
0.0680581
0.0628452
0.0710697
0.0630273
0.065317
0.0535617
0.0593626
0.0543436
0.0660701
0.0626854
0.0926442
0.0703917
0.0620124
0.0640299
0.0481084
0.0595018
0.0514868
0.0742101
0.063049
0.0592583
0.0601623
0.0611914
0.0622484
0.0620712
0.0604419
0.052623
0.0465752
0.111064
0.066224
0.0607668
0.0697938
0.0608319
0.0597114
0.0600033
0.0436565
0.0636808
0.0610284
0.0458657
0.066131
0.0430528
0.138513
0.0685625
0.0646139
0.0634951
0.0457424
0.0675441
0.040296
0.160613
0.0893978
0.0740483
0.0767518
0.183647
0.071982
0.0641713
0.0586846
0.0386312
0.0790406
0.0732713
0.0699898
0.0642341
0.0548702
0.0686459
0.0378351
0.21545
0.0585332
0.0474187
0.0650145
0.0555635
0.0510369
0.045018
0.0828644
0.0739781
0.0405497
0.0377401
0.0532217
0.0427183
0.248018
0.0854317
0.0464093
0.0397392
0.0729004
0.0667691
0.0564397
0.0441531
0.0848767
0.0516875
0.0384424
0.0750694
0.0460446
0.0402962
0.0495692
0.0426007
0.288847
0.0747518
0.072882
0.0402555
0.0401654
0.32065
0.0549477
0.0542819
0.0436248
0.0517999
0.0518449
0.0546933
0.0631757
0.0420287
0.0568228
0.0478921
0.350818
0.0503566
0.0598756
0.0433892
0.0418
0.0486328
0.0485991
0.0563244
0.0455136
0.0419784
0.0474543
0.0479296
0.0657265
0.0542143
0.046903
0.0429475
0.379094
0.0497265
0.0469996
0.0521745
0.0505456
0.0699945
0.0460599
0.047332
0.0499992
0.0534111
0.0481528
0.045087
0.0472653
0.0579906
0.0437209
0.0457132
0.0466179
0.0482513
0.0652189
0.0482536
0.0607938
0.412102
0.0548837
0.0459384
0.0450961
0.046087
0.0609288
0.0580738
0.0529016
0.0452088
0.0499237
0.0453131
0.0559641
0.06114
0.0524591
0.0631872
0.058582
0.0498348
0.0523108
0.0521677
0.0644677
0.447955
0.0456662
0.0511241
0.0569434
0.0498673
0.0441821
0.0515544
0.0520157
0.0533106
0.0651057
0.0454659
0.0501482
0.0637992
0.0528457
0.0468061
0.0440233
0.043756
0.0495625
0.0515789
0.0526658
0.0548663
0.0606341
0.0663804
0.468166
0.0553369
0.0484951
0.0534623
0.0545974
0.0578789
0.0450237
0.0488297
0.0551936
0.0848022
0.0695885
0.0609282
0.0542906
0.0462123
0.0472825
0.05724
0.0584569
0.0777506
0.0500217
0.057701
0.0591217
0.0887091
0.0756292
0.0599467
0.0611404
0.0738512
0.0528456
0.0512383
0.0494961
0.0724038
0.0842112
0.0947905
0.0533281
0.0745291
0.489653
0.0509376
0.0484155
0.0498931
0.0493855
0.0489112
0.0492188
0.107988
0.0510544
0.0594481
0.0540841
0.0565841
0.0667962
0.0737762
0.120792
0.0659814
0.0613547
0.0573003
0.0597198
0.07251
0.0816751
0.0906957
0.136764
0.468582
0.0608674
0.0621166
0.0636213
0.0844934
0.0924238
0.148284
0.076844
0.0650093
0.0838772
0.437892
0.0747142
0.0767428
0.0668401
0.0697131
0.171553
0.0698773
0.0675251
0.0805446
0.0711557
0.0711401
0.414749
0.0740228
0.0790724
0.0732573
0.187856
0.0754897
0.069206
0.0693687
0.0759955
0.0695675
0.38505
0.0765883
0.0693593
0.0732284
0.0777401
0.0798901
0.0686939
0.0685524
0.0824317
0.203748
0.076381
0.0807344
0.0729871
0.0675984
0.0686362
0.0731806
0.355757
0.0794443
0.208577
0.0671836
0.0675485
0.068403
0.0720644
0.208085
0.0685994
0.327358
0.0683596
0.070963
0.0693796
0.201696
0.0712223
0.0727823
0.0717674
0.185599
0.289576
0.0724405
0.0748069
0.157881
0.0877117
0.0829231
0.0947546
0.0841939
0.0814898
0.0764102
0.0749909
0.0769752
0.0833794
0.0838967
0.0788519
0.0754898
0.139407
0.25456
0.0771586
0.0811296
0.0769974
0.0770762
0.0782702
0.0733804
0.0848301
0.0813958
0.0776033
0.0839335
0.0719092
0.0728108
0.0831827
0.0796041
0.12086
0.240517
0.0671643
0.0981319
0.0716017
0.0900316
0.0852401
0.0819933
0.0805698
0.0655801
0.0657687
0.0854883
0.0761172
0.0695962
0.0745671
0.0806255
0.0744931
0.0634167
0.0662897
0.0814692
0.0916356
0.0887703
0.0849643
0.0815812
0.103208
0.07889
0.0697629
0.0666518
0.0750403
0.0813334
0.222683
0.0639588
0.0652049
0.0874961
0.0917588
0.0696101
0.0652568
0.0729052
0.0832929
0.0653716
0.0652415
0.0686469
0.0664572
0.0845935
0.0826907
0.209828
0.0616662
0.085523
0.0645216
0.067898
0.0666231
0.0883199
0.066386
0.0679632
0.0887309
0.197224
0.0621505
0.0676716
0.065457
0.0694926
0.0940573
0.0726916
0.0704019
0.100613
0.0714936
0.105369
0.0656243
0.184678
0.0884395
0.110944
0.0763903
0.0719466
0.126839
0.118867
0.147745
0.0823036
0.0710315
0.114704
0.102804
0.0753753
0.0720714
0.095887
0.103615
0.112118
0.120392
0.12871
0.0715992
0.0603699
0.0883
0.0738617
0.10213
0.167989
0.0869666
0.0814549
0.0804292
0.0803654
0.0769775
0.0632345
0.0805548
0.0915482
0.082148
0.084682
0.0870615
0.0856394
0.0739796
0.147601
0.0931671
0.0979024
0.0953372
0.0834423
0.136037
0.0981178
0.101225
0.121201
0.154306
0.10816
0.107282
0.103599
0.111144
0.161366
0.167534
0.113079
0.118866
0.152169
0.17178
0.172894
0.16987
0.158728
0.146613
0.131873
0.124743
0.119412
0.109793
0.125931
0.153669
0.0944152
0.105212
0.0998573
0.143395
0.0878014
0.155617
0.0880243
0.0911303
0.0763405
0.0988732
0.161032
0.0879248
0.0672871
0.0981814
0.161757
0.0692512
0.0624503
0.0939018
0.0873414
0.0690299
0.0615036
0.0645644
0.178395
0.162767
0.0800023
0.0697443
0.0621981
0.0576607
0.0980235
0.0713322
0.0622491
0.0576775
0.0550273
0.0545966
0.0600915
0.0900472
0.162533
0.084355
0.0761634
0.0853297
0.0514809
0.200211
0.0824371
0.0864068
0.0603397
0.0772586
0.0869636
0.0861885
0.0745482
0.0647495
0.0559619
0.0498066
0.0683932
0.102246
0.15834
0.0837691
0.060664
0.0571183
0.0550558
0.0530679
0.0588657
0.214698
0.0798566
0.0815877
0.0757636
0.0723425
0.0668591
0.0547368
0.0491571
0.0619242
0.0845366
0.151763
0.0788467
0.0733644
0.0715284
0.068011
0.060971
0.0569538
0.053286
0.0511244
0.0497307
0.0794425
0.0756555
0.0706772
0.0637512
0.0594065
0.0586337
0.0565111
0.050451
0.226655
0.100202
0.0932052
0.0929762
0.143286
0.0728523
0.0684953
0.0675533
0.0671367
0.0610054
0.0829127
0.0656267
0.0651184
0.0659088
0.0648716
0.0615915
0.0614115
0.0514046
0.050201
0.0783022
0.0962529
0.133763
0.0678134
0.0629885
0.0632449
0.0654701
0.0631999
0.0976263
0.0853726
0.0892477
0.0637868
0.0651052
0.0515428
0.0513831
0.0749993
0.237769
0.083033
0.0868233
0.0661397
0.0620325
0.0577814
0.0660511
0.0507626
0.078587
0.0941521
0.0810449
0.116546
0.0559129
0.0628539
0.0655127
0.0502468
0.0516222
0.0818195
0.0863753
0.0797307
0.0892956
0.0878231
0.0805371
0.0614215
0.0537972
0.0805382
0.0917332
0.0831958
0.070608
0.0633403
0.0525409
0.0629169
0.0501983
0.0516767
0.0800356
0.064247
0.0518158
0.0508308
0.245439
0.081208
0.0843284
0.091003
0.108972
0.05166
0.0500793
0.0902183
0.0832581
0.0556916
0.0520613
0.0486631
0.0633673
0.0518881
0.0751809
0.0826702
0.105474
0.0482052
0.0611417
0.0685185
0.0501015
0.092151
0.24812
0.0870407
0.0528402
0.0785313
0.131679
0.125497
0.0554971
0.0469469
0.0556683
0.0617407
0.050617
0.099841
0.109129
0.165685
0.152053
0.139979
0.0827738
0.0474979
0.0512777
0.250157
0.1788
0.053196
0.0467771
0.0491593
0.0506854
0.0741811
0.201312
0.193281
0.124391
0.0505892
0.0479693
0.0534377
0.0570585
0.203089
0.0490828
0.0569903
0.0517535
0.252039
0.104636
0.116929
0.194815
0.198045
0.200837
0.0789337
0.0595464
0.0502345
0.0592471
0.0680654
0.188453
0.127367
0.0526253
0.0486822
0.0531515
0.0667804
0.0633274
0.0533415
0.0515023
0.0508546
0.1819
0.0735403
0.0509997
0.069191
0.0608403
0.0555445
0.254154
0.158808
0.173131
0.129362
0.0720816
0.0528274
0.0701014
0.130887
0.0722227
0.0505779
0.055284
0.0535853
0.142599
0.129054
0.0508046
0.0528554
0.0552034
0.0707782
0.0571545
0.138391
0.123837
0.0715141
0.0513781
0.0581745
0.0579185
0.0549145
0.0706161
0.259088
0.0562712
0.103857
0.110517
0.125381
0.0688674
0.0525787
0.0624464
0.0893149
0.150143
0.0540791
0.0583734
0.0625484
0.119703
0.0668131
0.0513556
0.0954616
0.0620533
0.0702961
0.159525
0.0694953
0.0912804
0.0679674
0.044719
0.0843992
0.0859491
0.108694
0.27003
0.167882
0.0677838
0.0683614
0.0772774
0.0810659
0.0577353
0.0414877
0.0798748
0.0988389
0.0628924
0.0678419
0.0679737
0.0718924
0.0766888
0.0447149
0.172159
0.0791385
0.091429
0.0593397
0.0523037
0.0529993
0.0676149
0.0510308
0.0547137
0.0689248
0.0884384
0.279861
0.0408622
0.0848086
0.0799843
0.0777704
0.0581419
0.057033
0.0684035
0.08469
0.174724
0.0533507
0.0502989
0.0689436
0.0715092
0.0486813
0.0543551
0.0767821
0.0769136
0.0847138
0.0533105
0.0656606
0.0708884
0.0787557
0.0800801
0.0552046
0.0504342
0.0500502
0.070792
0.288337
0.0380664
0.0573811
0.0609643
0.0724834
0.173726
0.0466828
0.0536142
0.0612763
0.066732
0.0737043
0.0784142
0.0501305
0.0541091
0.0662122
0.07335
0.0411529
0.0492565
0.0571405
0.061611
0.0768728
0.0502954
0.0509153
0.0554548
0.0442823
0.0784441
0.0487546
0.0565883
0.0672417
0.0764099
0.0412038
0.0474315
0.0575433
0.070532
0.168435
0.076705
0.0509838
0.0483835
0.0695215
0.0756385
0.299594
0.0561622
0.0652987
0.0779758
0.0786501
0.0482996
0.049776
0.0750151
0.0532803
0.0853213
0.164104
0.0804615
0.0748997
0.0515865
0.0476435
0.0521165
0.0438588
0.0765686
0.0819132
0.078512
0.0539062
0.0479286
0.0555427
0.0734876
0.0564873
0.0488578
0.0466571
0.0483691
0.058102
0.0830234
0.153417
0.081886
0.101824
0.0687265
0.0607112
0.0503838
0.0467357
0.0522803
0.0957747
0.0715458
0.0715788
0.0536761
0.0469525
0.0459202
0.0559394
0.0608264
0.314749
0.0522143
0.0713452
0.145
0.0827836
0.0923599
0.0704961
0.0719057
0.0715786
0.0616351
0.0573343
0.0507315
0.0479217
0.045833
0.0647068
0.0724492
0.0761734
0.0776651
0.0847059
0.0708086
0.0700009
0.0642679
0.0595322
0.0697656
0.0679035
0.0899134
0.0849102
0.0761271
0.0779741
0.0870989
0.0659807
0.0587366
0.0549483
0.0513592
0.0470934
0.0529154
0.0601978
0.0615975
0.0642439
0.130303
0.0743237
0.0746161
0.0752623
0.0750938
0.0745149
0.0760579
0.0778684
0.0690214
0.0684794
0.066992
0.0616393
0.0485229
0.0589636
0.326195
0.0649812
0.0612545
0.0961483
0.0730501
0.0732927
0.0731824
0.0730936
0.0757434
0.0741151
0.070406
0.0676045
0.056074
0.0526083
0.0640699
0.0721859
0.0721237
0.0700549
0.0698385
0.0686732
0.0657519
0.0597788
0.0500635
0.048744
0.0519186
0.056943
0.0628526
0.0716032
0.0674998
0.0667457
0.0702204
0.070714
0.0650561
0.056061
0.052698
0.0492597
0.0480199
0.0727525
0.0648803
0.074122
0.0716615
0.071129
0.0652029
0.0658878
0.0744175
0.0679776
0.338741
0.0748113
0.0695912
0.10775
0.106433
0.0750283
0.0644839
0.0645958
0.0731134
0.0561509
0.0529615
0.0498907
0.055218
0.0650429
0.0631568
0.0753185
0.0795743
0.0540088
0.079675
0.114247
0.0711538
0.0705568
0.080102
0.072442
0.0584504
0.0552816
0.0530584
0.0526337
0.0777834
0.0750474
0.0703399
0.0633139
0.0682887
0.0557661
0.0545518
0.056178
0.100065
0.0957103
0.0639065
0.0630434
0.0653796
0.088745
0.0883189
0.0764076
0.126878
0.0710797
0.0730782
0.0608702
0.08376
0.0928486
0.074769
0.0648148
0.0652419
0.0695318
0.0652379
0.0617127
0.0641647
0.362813
0.0775443
0.132019
0.0714488
0.0727939
0.0728375
0.0729943
0.0714204
0.0659896
0.0682396
0.0694547
0.099769
0.0790395
0.0714315
0.0953441
0.13541
0.0719577
0.0734682
0.0699582
0.0736725
0.0805771
0.0731766
0.0718353
0.136443
0.0769319
0.0691219
0.0809113
0.0721742
0.0892586
0.0768748
0.0738966
0.0717394
0.0771625
0.0770395
0.0741131
0.0725636
0.0874382
0.134663
0.0810677
0.0754591
0.384457
0.0723954
0.0805613
0.0803046
0.0776049
0.0857814
0.115286
0.0814524
0.0776411
0.0904326
0.130601
0.0848752
0.0819942
0.0760717
0.0737663
0.0789333
0.0862374
0.0885827
0.0843471
0.0739851
0.121583
0.0831036
0.0798974
0.0938906
0.079253
0.0758148
0.398232
0.125948
0.0895063
0.0814066
0.0966611
0.0760855
0.0753544
0.0872438
0.106373
0.0826309
0.102972
0.0836789
0.10733
0.0758908
0.0769705
0.0850226
0.0825687
0.410455
0.0835817
0.0869305
0.0819372
0.0757965
0.146042
0.090466
0.0840321
0.0796992
0.0809977
0.0814548
0.0821608
0.0799254
0.0819338
0.0849897
0.0873871
0.0836988
0.079711
0.0741648
0.0694768
0.422463
0.16369
0.0801234
0.0766328
0.0698093
0.0871785
0.0858275
0.08394
0.0803934
0.0799512
0.0856787
0.0824708
0.0797046
0.0690224
0.0744843
0.0879219
0.0721553
0.177372
0.0805165
0.0895789
0.0635169
0.0874696
0.0816052
0.428769
0.080765
0.0602495
0.0857871
0.0830768
0.081694
0.0786428
0.0757775
0.0731882
0.0654646
0.0763839
0.0810141
0.0704215
0.0955078
0.0892458
0.0678636
0.19124
0.0814208
0.0842042
0.0577714
0.0744262
0.0806439
0.0871758
0.0726058
0.432563
0.085829
0.064926
0.0582137
0.0559989
0.0781785
0.0836066
0.0598943
0.0835642
0.0970096
0.0925371
0.0780397
0.064589
0.0692886
0.210011
0.0812838
0.0933133
0.0868046
0.0898567
0.0565145
0.0643787
0.0721955
0.434806
0.0887229
0.0837523
0.0931129
0.08548
0.0853999
0.0842849
0.0866535
0.0822011
0.0842339
0.0903921
0.0847704
0.0809736
0.0718001
0.229017
0.0821358
0.0811151
0.0538281
0.0554487
0.0576111
0.102218
0.0894766
0.0870344
0.0695239
0.0859366
0.0588812
0.0846319
0.0914014
0.0907041
0.0848917
0.0688605
0.0792136
0.0769651
0.0773681
0.0762722
0.0553788
0.0695577
0.0889536
0.0883577
0.08984
0.0891564
0.0843417
0.0755002
0.0841124
0.0732407
0.0714636
0.0691809
0.0614065
0.0578162
0.0562072
0.059207
0.0635412
0.088823
0.0754139
0.0745855
0.437015
0.079764
0.0759921
0.0604194
0.0582226
0.0580464
0.0604055
0.0652225
0.0858802
0.0847067
0.0802974
0.0760231
0.252801
0.0842817
0.0768719
0.0772672
0.0762113
0.0739945
0.0688581
0.064412
0.0590739
0.061636
0.0942407
0.0841006
0.0808384
0.0779506
0.0781679
0.0775203
0.0760431
0.0676798
0.0613819
0.0851164
0.0818266
0.0849356
0.0822227
0.0797628
0.0765953
0.0857088
0.0629968
0.271375
0.0858794
0.0647519
0.084485
0.439659
0.0814901
0.0649317
0.0866068
0.066768
0.0667782
0.288775
0.0880483
0.084393
0.442538
0.0872552
0.0862461
0.0841183
0.0815966
0.0832575
0.0706007
0.0865352
0.0799975
0.0848999
0.0826003
0.0849335
0.446674
0.0834406
0.0766898
0.0768584
0.0823248
0.0809141
0.0827023
0.0874976
0.0936464
0.313366
0.0903824
0.0879262
0.453494
0.0931767
0.0885252
0.0925116
0.325165
0.0936638
0.46009
0.325746
0.0945116
0.0876693
0.0899314
0.469601
0.0916061
0.317897
0.100612
0.0943799
0.482425
0.290576
0.495214
0.265616
0.237785
0.503492
0.215878
0.193607
0.501543
0.171359
0.1352
0.471744
0.114675
0.0955752
0.438432
0.0733871
0.41404
0.0566284
0.110674
0.0503811
0.0578392
0.0664883
0.0694445
0.099134
0.0724981
0.108422
0.1188
0.369648
0.0762039
0.074897
0.0755807
0.0884536
0.0788073
0.0423531
0.0762513
0.122225
0.137124
0.0706272
0.0677288
0.0683761
0.0954088
0.100584
0.0709388
0.0698867
0.0510155
0.0621934
0.0718013
0.0699661
0.0688912
0.0671572
0.0704484
0.0813344
0.0697211
0.0624679
0.0630597
0.0645485
0.0668129
0.0835198
0.0674813
0.0641878
0.0643514
0.0646754
0.337373
0.0417973
0.0677697
0.0874844
0.0936358
0.0666663
0.0643759
0.059164
0.0722159
0.0590138
0.0595869
0.0813279
0.050299
0.0681247
0.0733345
0.0637077
0.0607817
0.0634183
0.0643484
0.0603077
0.0460509
0.0587283
0.0645731
0.0655279
0.067134
0.0690351
0.0701999
0.064747
0.0627634
0.0573616
0.0586869
0.0664514
0.0638379
0.0701617
0.311393
0.0565225
0.0634085
0.0614666
0.0675378
0.0671206
0.056967
0.0573439
0.06414
0.0593679
0.0475075
0.0627551
0.0592542
0.0662639
0.0636931
0.0580664
0.0688375
0.0676619
0.0612266
0.0720052
0.0618259
0.0589278
0.0582127
0.0627961
0.0652934
0.0578042
0.058455
0.07866
0.0625823
0.0550131
0.0581173
0.0574449
0.0595479
0.0725395
0.0591538
0.0583534
0.0670625
0.0541153
0.0698055
0.0634115
0.0552596
0.059458
0.0606442
0.0618195
0.0727297
0.0646796
0.0543189
0.0532725
0.0573556
0.0604893
0.0614424
0.0786792
0.0706481
0.0635071
0.0622436
0.272217
0.0732824
0.0551389
0.0582464
0.0646975
0.0533226
0.0707544
0.0728066
0.078088
0.0683261
0.0756447
0.0647133
0.0564776
0.0732497
0.0690406
0.0551717
0.0680718
0.0793398
0.0829655
0.0805078
0.0762684
0.0689808
0.245947
0.0827084
0.0634691
0.0575955
0.0677427
0.0855802
0.0729515
0.0682372
0.0626051
0.0583059
0.0583179
0.0647218
0.0679882
0.0749396
0.0633798
0.226147
0.0733367
0.0627059
0.0818642
0.0855516
0.0746224
0.070288
0.0681424
0.0666785
0.0721339
0.0683069
0.0680199
0.0709994
0.0951628
0.072977
0.0724605
0.192963
0.0781525
0.0754092
0.0750633
0.0757417
0.0784109
0.104258
0.0801625
0.172979
0.0825049
0.153027
0.116773
0.133283
0.121061
0.0787343
0.0766042
0.0756025
0.0768745
0.107807
0.0985706
0.120401
0.0680934
0.0638537
0.0645743
0.10046
0.0899486
0.0612642
0.114385
0.0596752
0.0559027
0.0560399
0.0888783
0.0802389
0.0722288
0.0527095
0.0552982
0.085328
0.0732819
0.0646067
0.100739
0.0764412
0.0657612
0.0526219
0.0494336
0.0496931
0.085098
0.0688948
0.0514849
0.0472479
0.048427
0.0637148
0.0498158
0.0502089
0.058704
0.0458216
0.0856085
0.0794376
0.0763146
0.0758136
0.0759179
0.0761747
0.0763413
0.0764004
0.0764583
0.0764916
0.0765087
0.0765347
0.0765603
0.0766065
0.0766517
0.0767219
0.0767824
0.076789
0.0767103
0.076459
0.0758929
0.0748128
0.0729549
0.0700018
0.0656815
0.0599968
0.053563
0.0796777
0.0471219
0.0509858
0.0450289
0.0479381
0.0675367
0.0696144
0.0395847
0.0442822
0.050378
0.0433689
0.0466172
0.0411863
0.0572189
0.0518749
0.0687852
0.0823911
0.0976345
0.118927
0.144341
0.157512
0.171012
0.179119
0.182107
0.182798
0.180299
0.176729
0.172346
0.166414
0.162587
0.159751
0.157876
0.159054
0.162236
0.167812
0.172786
0.176795
0.184407
0.190987
0.195835
0.201822
0.205595
0.20852
0.211389
0.213909
0.216012
0.218431
0.221809
0.224569
0.225562
0.225078
0.221252
0.216338
0.210045
0.199368
0.190378
0.17012
0.145478
0.130079
0.105503
0.0922909
0.0738371
0.0650613
0.0580401
0.052734
0.0488372
0.0448913
0.0424385
0.0401791
0.0424169
0.0456747
0.0547593
0.0629821
0.0727968
0.0873041
0.0989667
0.120161
0.139027
0.165089
0.187585
0.205193
0.229586
0.248466
0.274265
0.300729