# vtk DataFile Version 1.0
Unstructured Grid Example
ASCII

DATASET UNSTRUCTURED_GRID
POINTS 16749 float
40 396 0
290 369 0
509 295 0
5 228 0
43 58 0
96 46 0
147 176 0
16 253 0
6 260 0
4 341 0
459 344 0
438 370 0
428 317 0
265 166 0
211 18 0
273 138 0
94 87 0
11 84 0
39 22 0
177 65 0
212 134 0
234 115 0
210 212 0
235 175 0
162 153 0
107 224 0
7 221 0
34 230 0
46 430 0
31 268 0
140 241 0
30 462 0
86 463 0
19 469 0
167 292 0
142 447 0
265 302 0
204 285 0
211 269 0
182 263 0
440 353 0
421 336 0
427 415 0
426 433 0
426 513 0
427 481 0
467 360 0
502 507 0
441 422 0
495 360 0
449 357 0
460 353 0
384 251 0
451 235 0
393 234 0
376 254 0
371 246 0
277 323 0
341 199 0
340 169 0
294 137 0
343 128 0
343 208 0
503 223 0
345 188 0
41 34 0
54 14 0
48 37 0
7 39 0
54 73 0
54 42 0
82 46 0
70 61 0
60 27 0
88 25 0
86 10 0
67 1 0
154 49 0
106 25 0
183 35 0
187 41 0
188 38 0
231 16 0
119 70 0
206 75 0
116 68 0
113 70 0
89 60 0
107 75 0
151 113 0
143 96 0
164 85 0
168 140 0
177 93 0
208 122 0
180 183 0
228 185 0
170 165 0
159 163 0
145 152 0
143 146 0
130 130 0
141 172 0
118 135 0
117 129 0
125 116 0
119 78 0
111 134 0
47 125 0
62 85 0
78 136 0
86 159 0
50 166 0
22 191 0
32 200 0
1 194 0
19 238 0
35 223 0
38 222 0
53 238 0
10 320 0
68 265 0
9 251 0
8 338 0
7 278 0
6 268 0
57 475 0
2 436 0
14 412 0
15 483 0
54 503 0
29 505 0
57 448 0
61 480 0
72 407 0
70 392 0
66 377 0
59 362 0
107 423 0
78 382 0
78 442 0
76 487 0
92 508 0
117 513 0
126 504 0
125 511 0
191 513 0
225 381 0
203 377 0
192 362 0
195 331 0
220 329 0
207 275 0
184 323 0
154 306 0
126 357 0
129 239 0
92 194 0
114 247 0
148 195 0
197 244 0
203 247 0
211 216 0
313 240 0
266 271 0
327 272 0
352 245 0
405 240 0
406 244 0
406 294 0
407 283 0
374 274 0
285 291 0
256 289 0
245 276 0
251 316 0
286 308 0
265 320 0
294 325 0
308 326 0
293 329 0
386 441 0
321 505 0
311 379 0
350 357 0
341 310 0
320 338 0
453 470 0
424 460 0
442 493 0
439 496 0
409 509 0
435 513 0
479 500 0
465 501 0
456 496 0
499 488 0
474 424 0
497 482 0
486 407 0
504 347 0
468 368 0
462 378 0
434 362 0
427 401 0
423 249 0
422 324 0
431 287 0
464 320 0
469 275 0
505 328 0
489 339 0
470 208 0
443 212 0
455 199 0
447 180 0
399 177 0
388 178 0
339 186 0
356 164 0
386 187 0
380 196 0
363 200 0
364 221 0
300 200 0
337 225 0
296 202 0
293 201 0
248 217 0
244 223 0
248 183 0
244 166 0
251 167 0
273 176 0
330 171 0
310 177 0
307 118 0
340 127 0
349 132 0
301 108 0
290 138 0
245 149 0
258 75 0
235 12 0
323 62 0
326 29 0
381 95 0
379 30 0
452 57 0
445 44 0
448 61 0
417 101 0
404 124 0
434 120 0
498 80 0
478 88 0
490 78 0
477 41 0
508 19 0
465 4 0
455 29 0
10 15 0
2 30 0
11 10 0
29 27 0
32 28 0
41 20 0
44 40 0
46 41 0
14 46 0
4 46 0
0 39 0
0 33 0
3 53 0
19 47 0
9 52 0
4 55 0
16 70 0
19 81 0
34 67 0
27 75 0
36 64 0
34 55 0
21 55 0
43 50 0
65 50 0
59 50 0
52 57 0
70 73 0
74 75 0
50 85 0
93 69 0
97 91 0
90 64 0
75 60 0
77 55 0
84 51 0
88 37 0
97 48 0
73 43 0
71 41 0
49 49 0
50 35 0
53 7 0
51 28 0
60 33 0
73 3 0
79 26 0
80 10 0
75 13 0
99 12 0
105 1 0
108 14 0
115 21 0
107 32 0
124 42 0
148 42 0
170 44 0
150 32 0
175 30 0
155 4 0
152 15 0
203 12 0
190 20 0
188 13 0
223 22 0
225 20 0
228 18 0
219 27 0
245 27 0
211 27 0
207 29 0
194 44 0
198 33 0
209 45 0
205 49 0
181 61 0
235 54 0
240 59 0
241 55 0
208 90 0
223 69 0
240 72 0
208 62 0
196 75 0
193 73 0
144 70 0
176 71 0
172 78 0
157 66 0
139 59 0
180 57 0
97 60 0
133 55 0
102 45 0
107 61 0
130 66 0
116 79 0
106 67 0
167 102 0
137 97 0
160 102 0
146 115 0
156 130 0
148 139 0
175 110 0
186 131 0
181 137 0
172 107 0
168 95 0
186 92 0
203 103 0
200 117 0
206 106 0
210 118 0
225 119 0
241 113 0
239 126 0
248 134 0
233 139 0
223 128 0
209 138 0
212 137 0
225 153 0
220 151 0
225 170 0
228 158 0
233 156 0
241 145 0
250 179 0
251 177 0
241 172 0
234 177 0
224 176 0
227 175 0
183 157 0
173 176 0
204 170 0
191 152 0
210 151 0
173 139 0
169 155 0
150 146 0
153 156 0
140 162 0
137 164 0
156 172 0
169 163 0
121 173 0
132 179 0
113 163 0
104 152 0
85 143 0
76 165 0
92 142 0
78 131 0
119 127 0
127 139 0
136 138 0
131 126 0
97 110 0
117 119 0
114 118 0
122 104 0
119 97 0
115 94 0
91 121 0
94 120 0
95 117 0
77 122 0
80 123 0
84 124 0
60 131 0
49 143 0
53 140 0
65 131 0
64 120 0
75 117 0
38 103 0
20 98 0
36 98 0
9 120 0
20 121 0
41 139 0
31 157 0
11 159 0
46 150 0
49 158 0
53 146 0
65 155 0
48 162 0
55 172 0
70 173 0
47 172 0
31 164 0
29 166 0
6 171 0
24 196 0
2 185 0
9 205 0
1 216 0
27 221 0
8 238 0
55 193 0
34 196 0
31 185 0
52 183 0
40 182 0
57 181 0
61 181 0
57 188 0
66 198 0
71 205 0
92 189 0
80 207 0
85 241 0
105 208 0
104 233 0
72 226 0
72 209 0
57 227 0
44 264 0
42 284 0
62 282 0
82 289 0
113 271 0
116 338 0
90 347 0
104 369 0
83 343 0
71 346 0
53 365 0
63 388 0
22 322 0
41 354 0
26 350 0
32 282 0
41 248 0
31 242 0
13 250 0
4 244 0
5 256 0
3 273 0
9 280 0
4 365 0
0 379 0
6 392 0
4 418 0
11 420 0
16 425 0
17 414 0
23 409 0
29 429 0
47 432 0
25 453 0
23 426 0
8 459 0
8 456 0
4 495 0
4 472 0
33 473 0
0 496 0
23 503 0
7 510 0
37 487 0
37 492 0
41 486 0
40 484 0
46 479 0
43 466 0
54 470 0
71 468 0
60 476 0
51 494 0
53 499 0
58 506 0
94 505 0
96 508 0
79 513 0
80 495 0
73 494 0
84 479 0
72 446 0
90 441 0
68 458 0
66 449 0
51 447 0
49 434 0
59 411 0
56 409 0
64 400 0
93 391 0
114 394 0
109 396 0
115 421 0
186 292 0
148 292 0
164 294 0
187 298 0
194 298 0
198 279 0
158 312 0
169 310 0
151 321 0
144 325 0
132 298 0
127 325 0
124 364 0
139 348 0
162 413 0
122 415 0
119 431 0
151 464 0
172 487 0
188 492 0
198 393 0
185 364 0
192 352 0
195 336 0
215 356 0
210 339 0
217 336 0
212 483 0
204 494 0
200 513 0
233 440 0
224 442 0
231 361 0
235 359 0
239 352 0
253 341 0
225 298 0
248 299 0
218 304 0
215 326 0
210 299 0
203 323 0
214 287 0
212 286 0
217 287 0
225 295 0
242 289 0
248 286 0
227 289 0
253 272 0
212 275 0
249 265 0
206 255 0
222 247 0
236 230 0
196 223 0
194 221 0
202 234 0
191 236 0
192 251 0
196 241 0
161 237 0
183 266 0
166 267 0
152 266 0
136 244 0
128 244 0
142 215 0
117 216 0
116 223 0
150 224 0
177 233 0
187 231 0
145 215 0
180 210 0
145 204 0
140 202 0
117 202 0
120 213 0
129 194 0
125 183 0
124 196 0
162 188 0
174 190 0
180 180 0
209 182 0
190 181 0
203 192 0
204 200 0
181 202 0
192 215 0
240 200 0
242 213 0
228 207 0
230 193 0
235 191 0
230 186 0
249 185 0
265 259 0
279 250 0
291 257 0
276 259 0
255 262 0
285 265 0
324 258 0
304 259 0
329 263 0
300 250 0
330 244 0
319 242 0
385 242 0
366 241 0
382 243 0
396 244 0
402 244 0
415 244 0
388 264 0
401 253 0
406 258 0
378 245 0
367 252 0
337 250 0
353 278 0
352 267 0
375 282 0
376 269 0
400 270 0
416 266 0
396 285 0
415 288 0
387 297 0
370 299 0
353 295 0
363 286 0
308 296 0
336 297 0
338 285 0
306 282 0
343 268 0
301 266 0
293 278 0
254 267 0
289 288 0
286 288 0
279 289 0
275 293 0
291 297 0
291 318 0
259 302 0
272 317 0
303 306 0
336 335 0
373 308 0
370 344 0
373 352 0
377 349 0
369 340 0
310 343 0
267 353 0
276 397 0
262 367 0
278 453 0
253 466 0
274 503 0
276 468 0
361 456 0
310 506 0
299 411 0
327 377 0
315 363 0
339 355 0
401 388 0
385 378 0
406 436 0
414 441 0
384 497 0
378 488 0
422 469 0
418 485 0
420 443 0
422 416 0
422 401 0
415 373 0
405 323 0
418 351 0
409 334 0
389 323 0
381 363 0
378 344 0
409 304 0
393 308 0
394 306 0
411 322 0
419 319 0
421 314 0
421 303 0
430 399 0
426 395 0
437 393 0
450 392 0
454 385 0
469 399 0
461 401 0
471 400 0
462 412 0
460 415 0
448 415 0
430 412 0
446 488 0
450 479 0
445 467 0
435 494 0
434 506 0
441 510 0
460 456 0
465 463 0
471 459 0
450 439 0
469 426 0
460 421 0
486 444 0
477 430 0
484 486 0
473 498 0
484 513 0
486 506 0
506 485 0
510 492 0
488 508 0
499 460 0
494 453 0
512 434 0
493 425 0
499 402 0
511 403 0
492 412 0
477 410 0
475 419 0
484 389 0
473 399 0
492 391 0
494 401 0
500 395 0
507 399 0
503 399 0
503 380 0
510 385 0
511 382 0
504 371 0
511 369 0
502 349 0
499 354 0
482 350 0
486 357 0
490 362 0
481 371 0
494 372 0
444 368 0
476 370 0
468 378 0
444 384 0
434 368 0
426 375 0
454 362 0
435 354 0
456 350 0
471 352 0
481 363 0
476 357 0
432 338 0
432 322 0
438 307 0
431 325 0
427 335 0
426 332 0
429 263 0
428 244 0
426 282 0
445 298 0
445 271 0
449 289 0
455 251 0
480 241 0
454 258 0
488 309 0
460 346 0
463 328 0
512 301 0
499 340 0
512 322 0
490 278 0
507 269 0
502 260 0
512 249 0
459 239 0
506 225 0
488 235 0
437 234 0
434 236 0
424 234 0
432 215 0
427 212 0
450 214 0
453 207 0
461 221 0
487 208 0
512 168 0
506 177 0
503 180 0
466 158 0
496 158 0
486 151 0
440 185 0
460 165 0
447 170 0
444 192 0
441 196 0
448 206 0
419 199 0
409 206 0
405 184 0
401 179 0
401 155 0
413 159 0
385 154 0
399 151 0
393 175 0
386 176 0
394 199 0
385 205 0
410 208 0
384 216 0
407 210 0
417 211 0
417 207 0
421 215 0
410 233 0
411 230 0
410 219 0
393 224 0
391 232 0
391 217 0
391 235 0
376 221 0
377 226 0
381 226 0
382 212 0
382 209 0
379 206 0
348 207 0
370 206 0
353 211 0
366 218 0
353 234 0
351 236 0
296 235 0
342 229 0
290 233 0
275 239 0
253 223 0
269 216 0
283 215 0
256 205 0
285 204 0
294 212 0
309 212 0
312 213 0
313 196 0
314 182 0
315 179 0
278 180 0
263 192 0
258 182 0
289 174 0
267 178 0
282 174 0
300 160 0
312 169 0
317 154 0
325 185 0
322 182 0
333 180 0
348 188 0
357 201 0
350 202 0
376 197 0
383 199 0
367 195 0
364 191 0
382 163 0
363 188 0
373 157 0
394 145 0
385 148 0
404 146 0
396 142 0
412 139 0
387 129 0
365 123 0
349 114 0
351 104 0
360 138 0
376 138 0
355 141 0
317 138 0
345 141 0
320 142 0
281 139 0
270 148 0
269 151 0
279 99 0
277 135 0
324 130 0
325 98 0
333 109 0
346 135 0
321 97 0
333 75 0
313 83 0
291 80 0
253 96 0
267 76 0
319 37 0
293 24 0
324 53 0
327 71 0
328 23 0
349 14 0
355 58 0
360 1 0
353 11 0
370 65 0
365 69 0
350 87 0
396 48 0
382 75 0
406 42 0
398 26 0
399 11 0
411 6 0
388 9 0
416 6 0
412 15 0
425 12 0
429 1 0
443 1 0
454 3 0
439 23 0
442 47 0
433 43 0
432 16 0
429 33 0
415 32 0
417 89 0
415 56 0
415 118 0
412 121 0
423 121 0
416 142 0
450 137 0
444 147 0
442 135 0
448 123 0
451 111 0
424 118 0
447 54 0
468 61 0
463 50 0
473 61 0
482 65 0
486 96 0
461 72 0
508 115 0
498 123 0
508 110 0
496 101 0
512 70 0
500 59 0
490 41 0
512 41 0
494 35 0
485 30 0
482 31 0
465 25 0
480 8 0
[...]
CELL_DATA 33030
COLOR_SCALARS ColorSpace 1
0.575163
0.721569
0.71634
0.504575
0.769935
0.620915
0.568627
0.695425
0.534641
0.479739
0.824837
0.677124
0.328105
0.573856
0.705882
0.52549
0.639216
0.760784
0.8
0.601307
0.724183
0.518954
0.63268
0.481046
0.585621
0.631373
0.532026
0.607843
0.322876
0.457516
0.504575
0.444444
0.546405
0.477124
0.517647
0.498039
0.648366
0.537255
0.504575
0.509804
0.594771
0.798693
0.48366
0.654902
0.586928
0.509804
0.583007
0.454902
0.515033
0.49281
0.670588
0.460131
0.56732
0.550327
0.624837
0.573856
0.643137
0.745098
0.614379
0.520261
0.675817
0.59085
0.816993
0.614379
0.673203
0.696732
0.677124
0.65098
0.673203
0.660131
0.754248
0.656209
0.589542
0.564706
0.56732
0.675817
0.529412
0.566013
0.556863
0.658824
0.56732
0.867974
0.554248
0.56732
0.555556
0.784314
0.636601
0.49281
0.602614
0.56732
0.675817
0.563399
0.533333
0.541176
0.550327
0.545098
0.552941
0.494118
0.247059
0.785621
0.477124
0.454902
0.569935
0.0888889
0.109804
0.51634
0.488889
0.10719
0.0705882
0.783007
0.0679739
0.64183
0.580392
0.462745
0.547712
0.479739
0.457516
0.458824
0.0653595
0.569935
0.461438
0.465359
0.475817
0.345098
0.534641
0.495425
0.503268
0.500654
0.513725
0.551634
0.511111
0.462745
0.581699
0.498039
0.512418
0.486275
0.554248
0.478431
0.559477
0.560784
0.539869
0.487582
0.498039
0.568627
0.475817
0.484967
0.465359
0.513725
0.620915
0.47451
0.534641
0.496732
0.520261
0.529412
0.54902
0.529412
0.500654
0.541176
0.52549
0.515033
0.538562
0.505882
0.537255
0.505882
0.473203
0.484967
0.48366
0.537255
0.505882
0.471895
0.49281
0.533333
0.47451
0.498039
0.496732
0.481046
0.471895
0.577778
0.522876
0.515033
0.528105
0.618301
0.490196
0.0797386
0.453595
0.542484
0.537255
0.55817
0.541176
0.487582
0.620915
0.647059
0.504575
0.622222
0.513725
0.657516
0.478431
0.645752
0.588235
0.464052
0.48366
0.515033
0.511111
0.469281
0.473203
0.479739
0.501961
0.639216
0.458824
0.475817
0.513725
0.454902
0.458824
0.573856
0.63268
0.792157
0.645752
0.610458
0.460131
0.521569
0.551634
0.547712
0.602614
0.532026
0.584314
0.568627
0.586928
0.654902
0.671895
0.664052
0.662745
0.684967
0.686275
0.796078
0.626144
0.729412
0.577778
0.630065
0.654902
0.666667
0.815686
0.79085
0.605229
0.703268
0.732026
0.490196
0.751634
0.484967
0.534641
0.630065
0.479739
0.496732
0.554248
0.522876
0.734641
0.720261
0.616993
0.580392
0.586928
0.645752
0.743791
0.70719
0.720261
0.643137
0.746405
0.664052
0.630065
0.718954
0.741176
0.709804
0.726797
0.779085
0.623529
0.700654
0.83268
0.70719
0.833987
0.588235
0.779085
0.84183
0.819608
0.831373
0.816993
0.921569
0.69281
0.823529
0.763399
0.728105
0.575163
0.681046
0.615686
0.607843
0.72549
0.566013
0.541176
0.662745
0.756863
0.698039
0.772549
0.69281
0.794771
0.696732
0.738562
0.658824
0.666667
0.742484
0.783007
0.635294
0.628758
0.579085
0.610458
0.640523
0.644444
0.0901961
0.075817
0.0980392
0.213072
0.577778
0.665359
0.566013
0.0810458
0.0666667
0.096732
0.495425
0.535948
0.633987
0.520261
0.113725
0.571242
0.444444
0.183007
0.661438
0.0771242
0.619608
0.0640523
0.607843
0.67451
0.669281
0.675817
0.628758
0.743791
0.722876
0.266667
0.754248
0.618301
0.752941
0.615686
0.746405
0.670588
0.824837
0.762092
0.887582
0.847059
0.866667
0.763399
0.905882
0.786928
0.586928
0.793464
0.560784
0.768627
0.861438
0.828758
0.760784
0.518954
0.835294
0.735948
0.763399
0.737255
0.776471
0.772549
0.764706
0.819608
0.762092
0.766013
0.79085
0.76732
0.711111
0.751634
0.690196
0.500654
0.694118
0.563399
0.633987
0.564706
0.547712
0.640523
0.610458
0.571242
0.592157
0.559477
0.556863
0.622222
0.579085
0.56732
0.656209
0.686275
0.556863
0.495425
0.546405
0.533333
0.511111
0.513725
0.481046
0.528105
0.513725
0.518954
0.50719
0.533333
0.494118
0.52549
0.475817
0.460131
0.530719
0.541176
0.47451
0.48366
0.478431
0.48366
0.560784
0.524183
0.163399
0.535948
0.660131
0.563399
0.488889
0.593464
0.515033
0.585621
0.52549
0.566013
0.0771242
0.546405
0.673203
0.132026
0.618301
0.624837
0.156863
0.586928
0.648366
0.569935
0.658824
0.580392
0.419608
0.0771242
0.0745098
0.0640523
0.585621
0.513725
0.508497
0.545098
0.501961
0.511111
0.657516
0.511111
0.594771
0.530719
0.63268
0.534641
0.482353
0.552941
0.458824
0.479739
0.559477
0.470588
0.470588
0.456209
0.479739
0.484967
0.499346
0.513725
0.478431
0.517647
0.470588
0.542484
0.460131
0.515033
0.464052
0.460131
0.462745
0.520261
0.464052
0.511111
0.471895
0.458824
0.457516
0.48366
0.469281
0.461438
0.552941
0.479739
0.50719
0.449673
0.511111
0.482353
0.454902
0.454902
0.484967
0.454902
0.462745
0.454902
0.512418
0.454902
0.460131
0.460131
0.454902
0.454902
0.477124
0.490196
0.498039
0.477124
0.465359
0.54902
0.484967
0.512418
0.498039
0.518954
0.541176
0.541176
0.541176
0.538562
0.522876
0.495425
0.498039
0.54902
0.48366
0.718954
0.482353
0.538562
0.447059
0.522876
0.542484
0.550327
0.526797
0.556863
0.543791
0.524183
0.543791
0.466667
0.458824
0.467974
0.490196
0.461438
0.461438
0.530719
0.52549
0.52549
0.54902
0.521569
0.541176
0.543791
0.54902
0.56732
0.488889
0.552941
0.555556
0.491503
0.542484
0.456209
0.503268
0.495425
0.471895
0.462745
0.481046
0.460131
0.556863
0.478431
0.471895
0.467974
0.577778
0.534641
0.554248
0.524183
0.56732
0.579085
0.559477
0.487582
0.563399
0.575163
0.520261
0.568627
0.546405
0.568627
0.513725
0.537255
0.542484
0.534641
0.517647
0.470588
0.495425
0.529412
0.488889
0.572549
0.511111
0.509804
0.532026
0.517647
0.488889
0.478431
0.505882
0.490196
0.491503
0.546405
0.467974
0.518954
0.467974
0.473203
0.521569
0.546405
0.554248
0.484967
0.537255
0.477124
0.511111
0.521569
0.478431
0.467974
0.498039
0.495425
0.530719
0.547712
0.471895
0.475817
0.528105
0.547712
0.54902
0.541176
0.484967
0.512418
0.537255
0.535948
0.539869
0.524183
0.538562
0.518954
0.526797
0.513725
0.49281
0.467974
0.545098
0.537255
0.498039
0.546405
0.490196
0.529412
0.499346
0.495425
0.503268
0.494118
0.494118
0.491503
0.530719
0.486275
0.460131
0.487582
0.515033
0.464052
0.496732
0.488889
0.491503
0.501961
0.462745
0.475817
0.477124
0.466667
0.487582
0.469281
0.48366
0.530719
0.499346
0.530719
0.545098
0.522876
0.521569
0.496732
0.501961
0.484967
0.512418
0.547712
0.526797
0.50719
0.542484
0.50719
0.547712
0.543791
0.532026
0.495425
0.550327
0.50719
0.505882
0.550327
0.484967
0.522876
0.473203
0.465359
0.464052
0.529412
0.518954
0.533333
0.482353
0.465359
0.486275
0.526797
0.503268
0.491503
0.571242
0.537255
0.52549
0.521569
0.490196
0.512418
0.569935
0.517647
0.55817
0.542484
0.534641
0.48366
0.528105
0.51634
0.482353
0.511111
0.491503
0.533333
0.487582
0.562092
0.503268
0.496732
0.478431
0.529412
0.488889
0.495425
0.48366
0.499346
0.481046
0.535948
0.475817
0.522876
0.505882
0.512418
0.503268
0.508497
0.624837
0.541176
0.562092
0.554248
0.504575
0.550327
0.117647
0.55817
0.543791
0.521569
0.511111
0.603922
0.520261
0.500654
0.504575
0.488889
0.573856
0.543791
0.505882
0.535948
0.51634
0.501961
0.545098
0.568627
0.662745
0.586928
0.556863
0.584314
0.598693
0.56732
0.630065
0.111111
0.615686
0.55817
0.606536
0.64183
0.577778
0.613072
0.550327
0.539869
0.128105
0.626144
0.560784
0.607843
0.620915
0.583007
0.665359
0.618301
0.666667
0.670588
0.667974
0.147712
0.0928105
0.333333
0.666667
0.67451
0.649673
0.679739
0.69281
0.623529
0.63268
0.521569
0.533333
0.545098
0.635294
0.564706
0.649673
0.656209
0.462745
0.481046
0.487582
0.556863
0.545098
0.664052
0.566013
0.495425
0.504575
0.487582
0.473203
0.616993
0.503268
0.462745
0.508497
0.645752
0.481046
0.467974
0.467974
0.466667
0.466667
0.469281
0.508497
0.562092
0.505882
0.500654
0.508497
0.541176
0.484967
0.512418
0.475817
0.541176
0.503268
0.547712
0.551634
0.467974
0.461438
0.504575
0.504575
0.588235
0.501961
0.568627
0.470588
0.471895
0.454902
0.464052
0.460131
0.457516
0.461438
0.445752
0.460131
0.460131
0.541176
0.444444
0.457516
0.467974
0.491503
0.55817
0.473203
0.482353
0.470588
0.475817
0.488889
0.495425
0.494118
0.546405
0.504575
0.513725
0.581699
0.594771
0.481046
0.539869
0.564706
0.623529
0.635294
0.597386
0.552941
0.584314
0.482353
0.589542
0.530719
0.47451
0.499346
0.481046
0.583007
0.554248
0.479739
0.461438
0.537255
0.528105
0.555556
0.555556
0.545098
0.637908
0.59085
0.597386
0.63268
0.571242
0.541176
0.575163
0.517647
0.546405
0.564706
0.618301
0.550327
0.564706
0.555556
0.606536
0.576471
0.666667
0.611765
0.647059
0.624837
0.759477
0.657516
0.784314
0.656209
0.666667
0.653595
0.678431
0.742484
0.713725
0.648366
0.648366
0.764706
0.721569
0.69281
0.698039
0.658824
0.690196
0.678431
0.72549
0.513725
0.687582
0.704575
0.63268
0.602614
0.626144
0.705882
0.76732
0.70719
0.705882
0.662745
0.708497
0.763399
0.688889
0.72549
0.754248
0.785621
0.718954
0.79085
0.75817
0.745098
0.777778
0.729412
0.709804
0.806536
0.666667
0.823529
0.733333
0.824837
0.654902
0.717647
0.677124
0.504575
0.654902
0.487582
0.589542
0.607843
0.589542
0.593464
0.715033
0.682353
0.60915
0.654902
0.779085
0.72549
0.626144
0.711111
0.589542
0.637908
0.56732
0.517647
0.630065
0.513725
0.637908
0.512418
0.682353
0.596078
0.670588
0.671895
0.537255
0.556863
0.603922
0.520261
0.505882
0.545098
0.593464
0.666667
0.524183
0.745098
0.576471
0.563399
0.769935
0.653595
0.734641
0.460131
0.533333
0.752941
0.71634
0.751634
0.720261
0.473203
0.546405
0.462745
0.645752
0.464052
0.539869
0.473203
0.461438
0.458824
0.597386
0.478431
0.594771
0.465359
0.696732
0.579085
0.705882
0.583007
0.601307
0.524183
0.618301
0.677124
0.615686
0.542484
0.816993
0.802614
0.745098
0.830065
0.819608
0.688889
0.602614
0.626144
0.653595
0.738562
0.666667
0.67451
0.572549
0.620915
0.72549
0.606536
0.644444
0.521569
0.606536
0.532026
0.566013
0.576471
0.550327
0.601307
0.703268
0.628758
0.722876
0.688889
0.691503
0.712418
0.694118
0.728105
0.712418
0.720261
0.675817
0.703268
0.726797
0.610458
0.577778
0.709804
0.696732
0.594771
0.583007
0.630065
0.592157
0.568627
0.640523
0.633987
0.56732
0.575163
0.660131
0.592157
0.626144
0.65098
0.603922
0.678431
0.701961
0.648366
0.677124
0.691503
0.698039
0.729412
0.735948
0.71634
0.760784
0.807843
0.735948
0.745098
0.822222
0.742484
0.789542
0.769935
0.779085
0.775163
0.844444
0.835294
0.747712
0.785621
0.844444
0.645752
0.773856
0.699346
0.746405
0.628758
0.682353
0.724183
0.654902
0.654902
0.648366
0.644444
0.681046
0.826144
0.870588
0.856209
0.835294
0.853595
0.789542
0.849673
0.803922
0.854902
0.756863
0.633987
0.754248
0.690196
0.730719
0.715033
0.781699
0.656209
0.542484
0.618301
0.577778
0.63268
0.624837
0.550327
0.626144
0.63268
0.645752
0.539869
0.654902
0.6
0.538562
0.541176
0.571242
0.658824
0.539869
0.550327
0.615686
0.569935
0.575163
0.622222
0.615686
0.653595
0.59085
0.649673
0.661438
0.069281
0.603922
0.589542
0.0745098
0.069281
0.602614
0.64183
0.640523
0.0732026
0.0771242
0.183007
0.27451
0.580392
0.616993
0.654902
0.0836601
0.0732026
0.614379
0.56732
0.575163
0.594771
0.551634
0.6
0.573856
0.592157
0.584314
0.605229
0.696732
0.649673
0.653595
0.635294
0.679739
0.682353
0.728105
0.708497
0.688889
0.755556
0.653595
0.624837
0.678431
0.729412
0.562092
0.649673
0.613072
0.563399
0.627451
0.55817
0.643137
0.647059
0.671895
0.257516
0.726797
0.658824
0.654902
0.720261
0.665359
0.630065
0.732026
0.666667
0.654902
0.624837
0.679739
0.678431
0.661438
0.657516
0.626144
0.0823529
0.63268
0.312418
0.265359
0.647059
0.362092
0.698039
0.10719
0.096732
0.298039
0.47451
0.436601
0.712418
0.624837
0.145098
0.696732
0.602614
0.218301
0.573856
0.665359
0.113725
0.666667
0.184314
0.581699
0.678431
0.658824
0.647059
0.554248
0.546405
0.52549
0.509804
0.656209
0.0666667
0.075817
0.0640523
0.0653595
0.239216
0.0627451
0.0666667
0.258824
0.27451
0.0640523
0.596078
0.122876
0.0941176
0.117647
0.0627451
0.145098
0.0732026
0.0849673
0.0901961
0.117647
0.0836601
0.0745098
0.0888889
0.562092
0.535948
0.156863
0.240523
0.55817
0.613072
0.560784
0.54902
0.555556
0.227451
0.529412
0.550327
0.0705882
0.55817
0.356863
0.552941
0.577778
0.504575
0.566013
0.219608
0.0627451
0.0771242
0.0653595
0.0810458
0.069281
0.626144
0.0627451
0.435294
0.108497
0.647059
0.0823529
0.0954248
0.122876
0.257516
0.521569
0.511111
0.0784314
0.496732
0.273203
0.515033
0.150327
0.54902
0.592157
0.573856
0.614379
0.662745
0.0627451
0.0745098
0.681046
0.0784314
0.645752
0.196078
0.606536
0.667974
0.586928
0.273203
0.0679739
0.0679739
0.122876
0.108497
0.652288
0.596078
0.63268
0.0745098
0.695425
0.606536
0.603922
0.6
0.585621
0.637908
0.607843
0.603922
0.647059
0.613072
0.722876
0.751634
0.626144
0.639216
0.677124
0.620915
0.652288
0.747712
0.579085
0.835294
0.640523
0.813072
0.730719
0.630065
0.773856
0.818301
0.747712
0.739869
0.670588
0.681046
0.843137
0.763399
0.760784
0.828758
0.843137
0.848366
0.822222
0.843137
0.88366
0.847059
0.854902
0.901961
0.862745
0.911111
0.898039
0.905882
0.743791
0.920261
0.918954
0.888889
0.856209
0.879739
0.877124
0.811765
0.861438
0.844444
0.798693
0.864052
0.854902
0.620915
0.852288
0.735948
0.803922
0.704575
0.8
0.688889
0.768627
0.837908
0.828758
0.905882
0.836601
0.734641
0.777778
0.818301
0.673203
0.690196
0.682353
0.637908
0.712418
0.704575
0.640523
0.779085
0.59085
0.573856
0.54902
0.794771
0.63268
0.703268
0.664052
0.579085
0.631373
0.633987
0.684967
0.678431
0.59085
0.50719
0.601307
0.550327
0.594771
0.504575
0.538562
0.517647
0.526797
0.520261
0.537255
0.501961
0.509804
0.49281
0.583007
0.631373
0.622222
0.751634
0.611765
0.620915
0.583007
0.603922
0.554248
0.580392
0.579085
0.546405
0.55817
0.552941
0.581699
0.563399
0.6
0.64183
0.572549
0.684967
0.588235
0.610458
0.636601
0.644444
0.783007
0.793464
0.717647
0.780392
0.747712
0.67451
0.776471
0.752941
0.760784
0.743791
0.773856
0.743791
0.576471
0.718954
0.713725
0.718954
0.538562
0.720261
0.619608
0.704575
0.581699
0.513725
0.597386
0.671895
0.477124
0.551634
0.556863
0.534641
0.583007
0.715033
0.627451
0.724183
0.639216
0.709804
0.550327
0.602614
0.623529
0.620915
0.664052
0.532026
0.484967
0.545098
0.499346
0.49281
0.552941
0.564706
0.52549
0.556863
0.491503
0.491503
0.552941
0.547712
0.517647
0.547712
0.537255
0.564706
0.564706
0.560784
0.575163
0.56732
0.552941
0.571242
0.55817
0.573856
0.556863
0.569935
0.560784
0.568627
0.566013
0.547712
0.529412
0.547712
0.559477
0.513725
0.547712
0.50719
0.546405
0.48366
0.508497
0.542484
0.520261
0.543791
0.515033
0.577778
0.55817
0.581699
0.542484
0.56732
0.55817
0.55817
0.577778
0.556863
0.559477
0.560784
0.594771
0.551634
0.563399
0.579085
0.576471
0.575163
0.569935
0.589542
0.562092
0.636601
0.579085
0.566013
0.55817
0.559477
0.564706
0.539869
0.535948
0.564706
0.566013
0.545098
0.530719
0.547712
0.542484
0.555556
0.500654
0.543791
0.496732
0.508497
0.537255
0.505882
0.555556
0.554248
0.545098
0.555556
0.496732
0.495425
0.513725
0.54902
0.443137
0.524183
0.503268
0.471895
0.500654
0.571242
0.49281
0.500654
0.296732
0.423529
0.530719
0.511111
0.405229
0.515033
0.481046
0.486275
0.539869
0.518954
0.49281
0.541176
0.490196
0.51634
0.535948
0.475817
0.509804
0.504575
0.501961
0.522876
0.515033
0.511111
0.505882
0.457516
0.491503
0.490196
0.533333
0.520261
0.503268
0.563399
0.522876
0.50719
0.545098
0.515033
0.55817
0.528105
0.488889
0.520261
0.475817
0.522876
0.513725
0.244444
0.482353
0.458824
0.460131
0.457516
0.454902
0.477124
0.473203
0.467974
0.48366
0.462745
0.471895
0.499346
0.501961
0.473203
0.469281
0.486275
0.491503
0.49281
0.486275
0.521569
0.513725
0.521569
0.515033
0.508497
0.499346
0.522876
0.55817
0.511111
0.524183
0.546405
0.564706
0.575163
0.555556
0.583007
0.511111
0.545098
0.588235
0.576471
0.584314
0.568627
0.60915
0.55817
0.607843
0.551634
0.533333
0.543791
0.545098
0.504575
0.528105
0.555556
0.533333
0.530719
0.545098
0.592157
0.538562
0.584314
0.546405
0.618301
0.50719
0.521569
0.526797
0.529412
0.517647
0.533333
0.583007
0.532026
0.520261
0.554248
0.534641
0.55817
0.512418
0.54902
0.547712
0.535948
0.560784
0.428758
0.569935
0.56732
0.551634
0.562092
0.681046
0.562092
0.538562
0.559477
0.313725
0.0718954
0.388235
0.0718954
0.573856
0.0653595
0.151634
0.577778
0.563399
0.552941
0.0797386
0.205229
0.0810458
0.132026
0.59085
0.120261
0.0862745
0.113725
0.0771242
0.0679739
0.662745
0.30719
0.335948
0.0823529
0.452288
0.243137
0.645752
0.401307
0.598693
0.63268
0.631373
0.633987
0.673203
0.122876
0.606536
0.111111
0.647059
0.647059
0.645752
0.60915
0.620915
0.633987
0.616993
0.597386
0.537255
0.560784
0.581699
0.530719
0.530719
0.501961
0.628758
0.535948
0.529412
0.537255
0.545098
0.555556
0.538562
0.6
0.610458
0.611765
0.482353
0.616993
0.414379
0.620915
0.610458
0.60915
0.611765
0.639216
0.607843
0.0640523
0.0653595
0.0823529
0.069281
0.0718954
0.562092
0.488889
0.533333
0.164706
0.545098
0.0771242
0.580392
0.597386
0.577778
0.583007
0.619608
0.556863
0.586928
0.501961
0.584314
0.477124
0.56732
0.579085
0.577778
0.528105
0.564706
0.481046
0.500654
0.491503
0.564706
0.460131
0.460131
0.464052
0.475817
0.457516
0.479739
0.482353
0.471895
0.504575
0.461438
0.482353
0.499346
0.520261
0.477124
0.552941
0.504575
0.594771
0.583007
0.522876
0.48366
0.512418
0.496732
0.482353
0.509804
0.466667
0.490196
0.490196
0.473203
0.457516
0.59085
0.467974
0.470588
0.465359
0.478431
0.511111
0.482353
0.457516
0.466667
0.462745
0.461438
0.464052
0.500654
0.462745
0.465359
0.462745
0.487582
0.460131
0.460131
0.464052
0.524183
0.512418
0.466667
0.462745
0.470588
0.465359
0.462745
0.470588
0.461438
0.462745
0.464052
0.461438
0.461438
0.461438
0.467974
0.460131
0.465359
0.469281
0.469281
0.460131
0.461438
0.462745
0.466667
0.458824
0.462745
0.460131
0.461438
0.456209
0.457516
0.461438
0.466667
0.464052
0.462745
0.661438
0.458824
0.456209
0.456209
0.662745
0.562092
0.460131
0.532026
0.457516
0.460131
0.462745
0.457516
0.466667
0.457516
0.456209
0.454902
0.529412
0.457516
0.458824
0.458824
0.456209
0.462745
0.457516
0.458824
0.456209
0.462745
0.454902
0.471895
0.460131
0.458824
0.490196
0.461438
0.550327
0.491503
0.488889
0.460131
0.484967
0.52549
0.49281
0.467974
0.466667
0.458824
0.456209
0.453595
0.465359
0.467974
0.454902
0.454902
0.456209
0.45098
0.454902
0.454902
0.454902
0.454902
0.448366
0.448366
0.447059
0.456209
0.449673
0.449673
0.471895
0.470588
0.470588
0.454902
0.447059
0.466667
0.449673
0.454902
0.454902
0.453595
0.454902
0.454902
0.454902
0.454902
0.454902
0.454902
0.454902
0.658824
0.454902
0.456209
0.661438
0.461438
0.460131
0.457516
0.458824
0.464052
0.661438
0.456209
0.661438
0.461438
0.660131
0.461438
0.454902
0.509804
0.490196
0.471895
0.47451
0.470588
0.479739
0.490196
0.470588
0.486275
0.499346
0.496732
0.518954
0.504575
0.532026
0.47451
0.467974
0.477124
0.464052
0.467974
0.469281
0.475817
0.469281
0.488889
0.467974
0.471895
0.465359
0.503268
0.465359
0.467974
0.498039
0.466667
0.511111
0.469281
0.505882
0.478431
0.552941
0.500654
0.533333
0.534641
0.534641
0.509804
0.508497
0.509804
0.495425
0.478431
0.537255
0.535948
0.551634
0.530719
0.534641
0.529412
0.54902
0.541176
0.556863
0.546405
0.551634
0.534641
0.538562
0.538562
0.573856
0.538562
0.539869
0.547712
0.543791
0.547712
0.541176
0.551634
0.556863
0.51634
0.533333
0.546405
0.559477
0.526797
0.555556
0.529412
0.542484
0.554248
0.550327
0.554248
0.512418
0.543791
0.52549
0.505882
0.511111
0.488889
0.50719
0.526797
0.529412
0.513725
0.538562
0.546405
0.533333
0.541176
0.547712
0.520261
0.539869
0.535948
0.551634
0.524183
0.522876
0.461438
0.498039
0.524183
0.529412
0.529412
0.49281
0.452288
0.534641
0.464052
0.460131
0.515033
0.482353
0.552941
0.542484
0.559477
0.461438
0.554248
0.44183
0.494118
0.517647
0.448366
0.447059
0.449673
0.447059
0.444444
0.444444
0.447059
0.466667
0.44183
0.445752
0.449673
0.460131
0.443137
0.461438
0.444444
0.47451
0.449673
0.447059
0.449673
0.481046
0.491503
0.484967
0.487582
0.477124
0.488889
0.458824
0.449673
0.460131
0.452288
0.465359
0.464052
0.454902
0.457516
0.470588
0.466667
0.462745
0.461438
0.473203
0.461438
0.473203
0.462745
0.477124
0.456209
0.471895
0.471895
0.464052
0.475817
0.456209
0.488889
0.505882
0.481046
0.495425
0.530719
0.488889
0.48366
0.479739
0.482353
0.526797
0.526797
0.539869
0.564706
0.56732
0.554248
0.522876
0.528105
0.52549
0.491503
0.482353
0.521569
0.54902
0.538562
0.556863
0.562092
0.521569
0.552941
0.495425
0.545098