# vtk DataFile Version 1.0
Unstructured Grid Example
ASCII

DATASET UNSTRUCTURED_GRID
POINTS 16749 float
1 513 0
4 513 0
7 513 0
11 513 0
14 513 0
17 513 0
22 513 0
25 513 0
28 513 0
33 513 0
38 513 0
42 513 0
46 513 0
50 513 0
54 513 0
59 513 0
62 513 0
66 513 0
71 513 0
74 513 0
79 513 0
82 513 0
85 513 0
91 513 0
96 513 0
101 513 0
105 513 0
111 513 0
117 513 0
121 513 0
130 513 0
135 513 0
144 513 0
149 513 0
157 513 0
164 513 0
170 513 0
181 513 0
191 513 0
200 513 0
210 513 0
222 513 0
231 513 0
239 513 0
247 513 0
256 513 0
263 513 0
271 513 0
278 513 0
288 513 0
298 513 0
307 513 0
314 513 0
322 513 0
330 513 0
337 513 0
345 513 0
351 513 0
359 513 0
365 513 0
372 513 0
378 513 0
387 513 0
394 513 0
402 513 0
407 513 0
412 513 0
418 513 0
422 513 0
426 513 0
430 513 0
435 513 0
439 513 0
444 513 0
448 513 0
452 513 0
456 513 0
461 513 0
465 513 0
468 513 0
472 513 0
475 513 0
479 513 0
484 513 0
487 513 0
492 513 0
495 513 0
498 513 0
501 513 0
504 513 0
509 513 0
512 513 0
30 512 0
44 512 0
57 512 0
507 512 0
0 511 0
3 511 0
9 511 0
19 511 0
36 511 0
41 511 0
48 511 0
51 511 0
55 511 0
60 511 0
64 511 0
68 511 0
77 511 0
125 511 0
477 511 0
481 511 0
489 511 0
510 511 0
7 510 0
25 510 0
28 510 0
31 510 0
34 510 0
43 510 0
46 510 0
58 510 0
71 510 0
81 510 0
89 510 0
99 510 0
382 510 0
433 510 0
441 510 0
455 510 0
466 510 0
470 510 0
494 510 0
501 510 0
506 510 0
512 510 0
21 509 0
38 509 0
54 509 0
63 509 0
108 509 0
114 509 0
355 509 0
404 509 0
409 509 0
418 509 0
428 509 0
445 509 0
450 509 0
458 509 0
462 509 0
485 509 0
498 509 0
509 509 0
1 508 0
4 508 0
12 508 0
15 508 0
18 508 0
30 508 0
40 508 0
44 508 0
49 508 0
52 508 0
56 508 0
61 508 0
73 508 0
79 508 0
86 508 0
92 508 0
96 508 0
103 508 0
118 508 0
131 508 0
145 508 0
155 508 0
176 508 0
283 508 0
393 508 0
414 508 0
474 508 0
478 508 0
481 508 0
488 508 0
491 508 0
7 507 0
24 507 0
27 507 0
35 507 0
42 507 0
46 507 0
67 507 0
76 507 0
140 507 0
196 507 0
204 507 0
342 507 0
370 507 0
378 507 0
398 507 0
423 507 0
438 507 0
468 507 0
471 507 0
495 507 0
502 507 0
507 507 0
512 507 0
0 506 0
3 506 0
10 506 0
32 506 0
37 506 0
48 506 0
51 506 0
55 506 0
58 506 0
71 506 0
100 506 0
122 506 0
187 506 0
218 506 0
267 506 0
310 506 0
332 506 0
434 506 0
443 506 0
447 506 0
453 506 0
464 506 0
486 506 0
499 506 0
510 506 0
13 505 0
21 505 0
29 505 0
34 505 0
64 505 0
81 505 0
94 505 0
111 505 0
165 505 0
181 505 0
321 505 0
389 505 0
411 505 0
417 505 0
430 505 0
481 505 0
7 504 0
18 504 0
39 504 0
42 504 0
45 504 0
49 504 0
52 504 0
57 504 0
67 504 0
74 504 0
78 504 0
85 504 0
90 504 0
117 504 0
126 504 0
148 504 0
227 504 0
239 504 0
260 504 0
291 504 0
348 504 0
361 504 0
403 504 0
469 504 0
473 504 0
476 504 0
491 504 0
497 504 0
504 504 0
507 504 0
512 504 0
3 503 0
15 503 0
23 503 0
26 503 0
35 503 0
54 503 0
62 503 0
70 503 0
131 503 0
153 503 0
160 503 0
172 503 0
251 503 0
274 503 0
301 503 0
394 503 0
450 503 0
459 503 0
484 503 0
501 503 0
0 502 0
11 502 0
29 502 0
32 502 0
37 502 0
46 502 0
50 502 0
58 502 0
76 502 0
81 502 0
97 502 0
102 502 0
106 502 0
141 502 0
327 502 0
375 502 0
381 502 0
407 502 0
425 502 0
489 502 0
493 502 0
511 502 0
5 501 0
8 501 0
34 501 0
40 501 0
44 501 0
52 501 0
73 501 0
84 501 0
88 501 0
93 501 0
111 501 0
121 501 0
200 501 0
207 501 0
283 501 0
341 501 0
356 501 0
420 501 0
430 501 0
441 501 0
455 501 0
465 501 0
471 501 0
486 501 0
496 501 0
506 501 0
14 500 0
20 500 0
24 500 0
27 500 0
36 500 0
42 500 0
48 500 0
56 500 0
65 500 0
69 500 0
136 500 0
193 500 0
316 500 0
415 500 0
437 500 0
446 500 0
476 500 0
479 500 0
499 500 0
502 500 0
509 500 0
0 499 0
3 499 0
10 499 0
17 499 0
31 499 0
38 499 0
50 499 0
53 499 0
61 499 0
76 499 0
79 499 0
167 499 0
184 499 0
216 499 0
389 499 0
452 499 0
458 499 0
483 499 0
493 499 0
512 499 0
6 498 0
34 498 0
40 498 0
47 498 0
55 498 0
58 498 0
98 498 0
102 498 0
115 498 0
335 498 0
349 498 0
363 498 0
369 498 0
400 498 0
473 498 0
496 498 0
505 498 0
510 498 0
15 497 0
22 497 0
27 497 0
36 497 0
42 497 0
45 497 0
51 497 0
66 497 0
72 497 0
83 497 0
89 497 0
107 497 0
131 497 0
144 497 0
154 497 0
223 497 0
238 497 0
267 497 0
384 497 0
405 497 0
411 497 0
423 497 0
432 497 0
462 497 0
466 497 0
476 497 0
479 497 0
487 497 0
490 497 0
500 497 0
508 497 0
0 496 0
8 496 0
11 496 0
19 496 0
39 496 0
48 496 0
53 496 0
77 496 0
120 496 0
160 496 0
173 496 0
251 496 0
418 496 0
439 496 0
446 496 0
456 496 0
483 496 0
493 496 0
512 496 0
4 495 0
31 495 0
37 495 0
44 495 0
55 495 0
64 495 0
69 495 0
80 495 0
86 495 0
125 495 0
137 495 0
149 495 0
291 495 0
305 495 0
343 495 0
376 495 0
451 495 0
472 495 0
504 495 0
509 495 0
15 494 0
22 494 0
28 494 0
41 494 0
46 494 0
51 494 0
60 494 0
73 494 0
92 494 0
204 494 0
284 494 0
312 494 0
319 494 0
354 494 0
393 494 0
435 494 0
459 494 0
478 494 0
481 494 0
485 494 0
488 494 0
496 494 0
507 494 0
0 493 0
9 493 0
12 493 0
25 493 0
33 493 0
43 493 0
54 493 0
83 493 0
97 493 0
105 493 0
167 493 0
180 493 0
231 493 0
260 493 0
328 493 0
399 493 0
442 493 0
464 493 0
475 493 0
492 493 0
501 493 0
512 493 0
19 492 0
37 492 0
40 492 0
45 492 0
49 492 0
52 492 0
58 492 0
62 492 0
67 492 0
88 492 0
101 492 0
111 492 0
132 492 0
188 492 0
298 492 0
387 492 0
406 492 0
429 492 0
448 492 0
455 492 0
470 492 0
498 492 0
505 492 0
510 492 0
5 491 0
28 491 0
47 491 0
70 491 0
78 491 0
144 491 0
211 491 0
276 491 0
417 491 0
422 491 0
479 491 0
508 491 0
0 490 0
9 490 0
13 490 0
17 490 0
21 490 0
25 490 0
32 490 0
35 490 0
41 490 0
50 490 0
54 490 0
60 490 0
65 490 0
85 490 0
119 490 0
219 490 0
241 490 0
359 490 0
366 490 0
412 490 0
439 490 0
461 490 0
467 490 0
476 490 0
483 490 0
490 490 0
512 490 0
3 489 0
38 489 0
44 489 0
48 489 0
73 489 0
81 489 0
91 489 0
127 489 0
162 489 0
253 489 0
266 489 0
372 489 0
472 489 0
486 489 0
495 489 0
502 489 0
507 489 0
510 489 0
6 488 0
23 488 0
34 488 0
42 488 0
52 488 0
56 488 0
63 488 0
68 488 0
100 488 0
197 488 0
289 488 0
349 488 0
378 488 0
426 488 0
446 488 0
450 488 0
499 488 0
505 488 0
11 487 0
14 487 0
18 487 0
26 487 0
29 487 0
37 487 0
46 487 0
49 487 0
76 487 0
96 487 0
107 487 0
139 487 0
155 487 0
172 487 0
340 487 0
384 487 0
431 487 0
469 487 0
477 487 0
488 487 0
492 487 0
508 487 0
512 487 0
3 486 0
41 486 0
44 486 0
51 486 0
59 486 0
66 486 0
86 486 0
132 486 0
148 486 0
326 486 0
333 486 0
398 486 0
408 486 0
460 486 0
464 486 0
480 486 0
484 486 0
495 486 0
504 486 0
0 485 0
20 485 0
23 485 0
34 485 0
38 485 0
47 485 0
55 485 0
63 485 0
69 485 0
72 485 0
116 485 0
179 485 0
418 485 0
456 485 0
474 485 0
490 485 0
502 485 0
506 485 0
509 485 0
8 484 0
31 484 0
36 484 0
40 484 0
43 484 0
49 484 0
78 484 0
83 484 0
93 484 0
102 484 0
204 484 0
228 484 0
273 484 0
298 484 0
316 484 0
356 484 0
368 484 0
391 484 0
435 484 0
442 484 0
448 484 0
470 484 0
487 484 0
498 484 0
511 484 0
3 483 0
12 483 0
15 483 0
18 483 0
26 483 0
51 483 0
59 483 0
66 483 0
89 483 0
212 483 0
306 483 0
462 483 0
466 483 0
480 483 0
483 483 0
503 483 0
0 482 0
34 482 0
38 482 0
45 482 0
53 482 0
75 482 0
124 482 0
261 482 0
282 482 0
477 482 0
492 482 0
497 482 0
501 482 0
507 482 0
510 482 0
10 481 0
21 481 0
41 481 0
50 481 0
64 481 0
70 481 0
81 481 0
112 481 0
144 481 0
221 481 0
238 481 0
375 481 0
412 481 0
421 481 0
427 481 0
454 481 0
469 481 0
495 481 0
3 480 0
7 480 0
18 480 0
24 480 0
28 480 0
32 480 0
36 480 0
52 480 0
55 480 0
61 480 0
96 480 0
131 480 0
153 480 0
250 480 0
337 480 0
381 480 0
400 480 0
438 480 0
444 480 0
459 480 0
473 480 0
485 480 0
489 480 0
500 480 0
504 480 0
511 480 0
0 479 0
13 479 0
39 479 0
43 479 0
46 479 0
58 479 0
67 479 0
73 479 0
84 479 0
89 479 0
163 479 0
170 479 0
187 479 0
450 479 0
464 479 0
479 479 0
482 479 0
494 479 0
497 479 0
507 479 0
16 478 0
30 478 0
49 478 0
70 478 0
78 478 0
108 478 0
120 478 0
347 478 0
394 478 0
470 478 0
491 478 0
501 478 0
509 478 0
7 477 0
10 477 0
20 477 0
24 477 0
33 477 0
55 477 0
63 477 0
137 477 0
178 477 0
197 477 0
312 477 0
326 477 0
362 477 0
408 477 0
476 477 0
484 477 0
496 477 0
511 477 0
3 476 0
13 476 0
38 476 0
42 476 0
60 476 0
67 476 0
92 476 0
126 476 0
148 476 0
296 476 0
424 476 0
431 476 0
458 476 0
465 476 0
473 476 0
479 476 0
487 476 0
503 476 0
506 476 0
0 475 0
27 475 0
30 475 0
48 475 0
52 475 0
57 475 0
79 475 0
87 475 0
97 475 0
102 475 0
227 475 0
272 475 0
446 475 0
452 475 0
494 475 0
499 475 0
512 475 0
8 474 0
19 474 0
22 474 0
40 474 0
45 474 0
65 474 0
70 474 0
73 474 0
83 474 0
112 474 0
157 474 0
216 474 0
262 474 0
287 474 0
369 474 0
388 474 0
399 474 0
436 474 0
462 474 0
468 474 0
471 474 0
481 474 0
485 474 0
491 474 0
508 474 0
11 473 0
16 473 0
33 473 0
36 473 0
55 473 0
59 473 0
62 473 0
204 473 0
356 473 0
412 473 0
418 473 0
441 473 0
478 473 0
488 473 0
504 473 0
0 472 0
4 472 0
26 472 0
29 472 0
42 472 0
52 472 0
78 472 0
91 472 0
121 472 0
303 472 0
382 472 0
457 472 0
475 472 0
495 472 0
499 472 0
512 472 0
13 471 0
38 471 0
46 471 0
49 471 0
65 471 0
68 471 0
71 471 0
107 471 0
163 471 0
183 471 0
234 471 0
406 471 0
427 471 0
448 471 0
463 471 0
468 471 0
472 471 0
480 471 0
485 471 0
490 471 0
502 471 0
507 471 0
10 470 0
16 470 0
33 470 0
54 470 0
57 470 0
74 470 0
81 470 0
85 470 0
96 470 0
131 470 0
146 470 0
393 470 0
433 470 0
453 470 0
460 470 0
477 470 0
493 470 0
497 470 0
0 469 0
3 469 0
7 469 0
19 469 0
22 469 0
26 469 0
29 469 0
44 469 0
51 469 0
60 469 0
63 469 0
102 469 0
170 469 0
191 469 0
341 469 0
364 469 0
422 469 0
474 469 0
488 469 0
504 469 0
509 469 0
512 469 0
13 468 0
37 468 0
40 468 0
48 468 0
66 468 0
71 468 0
245 468 0
276 468 0
319 468 0
330 468 0
457 468 0
467 468 0
471 468 0
482 468 0
485 468 0
495 468 0
9 467 0
16 467 0
34 467 0
53 467 0
57 467 0
78 467 0
87 467 0
114 467 0
125 467 0
140 467 0
295 467 0
352 467 0
376 467 0
412 467 0
438 467 0
445 467 0
464 467 0
490 467 0
500 467 0
506 467 0
0 466 0
3 466 0
6 466 0
24 466 0
43 466 0
50 466 0
69 466 0
75 466 0
91 466 0
95 466 0
158 466 0
253 466 0
427 466 0
452 466 0
473 466 0
[...]
CELL_DATA 16749
COLOR_SCALARS lut 1
0.029033
0.03367
0.0391703
0.0465005
0.050731
0.0528451
0.0507095
0.0467492
0.0417572
0.0332559
0.027037
0.0247663
0.024548
0.0257004
0.0276994
0.0325778
0.0378761
0.0484149
0.0660372
0.0778663
0.0978625
0.109484
0.120639
0.141808
0.159084
0.17661
0.190861
0.21259
0.234793
0.249816
0.283195
0.300824
0.331047
0.347655
0.374699
0.399148
0.420471
0.459809
0.494952
0.522782
0.54086
0.545787
0.546615
0.547628
0.549643
0.5522
0.553314
0.552802
0.551967
0.551137
0.549
0.541435
0.528763
0.510313
0.491191
0.474856
0.456412
0.442454
0.422933
0.406515
0.385096
0.365908
0.337036
0.31526
0.291183
0.27665
0.262543
0.246106
0.235278
0.224245
0.212875
0.198505
0.187194
0.173631
0.163331
0.153583
0.144422
0.133718
0.125584
0.119661
0.111968
0.106363
0.0991204
0.0901374
0.0844627
0.0737826
0.0663906
0.0584503
0.050332
0.042462
0.0312842
0.0264277
0.039503
0.0251458
0.0308967
0.036698
0.0308035
0.035463
0.0470257
0.0566284
0.0311344
0.0268138
0.0261052
0.0271034
0.0296508
0.0363435
0.0457824
0.0588472
0.0947253
0.270435
0.107339
0.0999256
0.0842695
0.0319081
0.0453051
0.051583
0.0460279
0.0402857
0.0350876
0.0269745
0.0265719
0.0341003
0.0726572
0.11358
0.143326
0.178275
0.36181
0.213016
0.190403
0.155148
0.131629
0.12356
0.074459
0.0554242
0.0420904
0.0297796
0.0592496
0.0310122
0.0302869
0.0464369
0.213861
0.235841
0.445131
0.297541
0.283182
0.258324
0.230794
0.183052
0.170313
0.15168
0.143051
0.0969056
0.0656199
0.0366795
0.0382111
0.0438357
0.0595903
0.062934
0.0635298
0.0448736
0.0303991
0.0285955
0.0284331
0.0296215
0.0333573
0.0428093
0.0862207
0.111626
0.139124
0.16066
0.174677
0.199472
0.254389
0.302649
0.350228
0.38371
0.457787
0.56741
0.334192
0.272866
0.121371
0.11332
0.10734
0.0927976
0.0858879
0.0527143
0.0585769
0.0525416
0.0369419
0.0303331
0.0291914
0.0641363
0.10205
0.337426
0.530933
0.551875
0.483017
0.411066
0.385597
0.322799
0.252212
0.209522
0.136963
0.130619
0.0775264
0.0579504
0.0443828
0.0336516
0.0411458
0.0467177
0.061515
0.0432521
0.0353208
0.0300664
0.0307983
0.034181
0.0390583
0.0831745
0.196504
0.277258
0.504791
0.568735
0.576931
0.560348
0.510176
0.22493
0.199615
0.18901
0.174
0.148981
0.10145
0.068098
0.0388181
0.068784
0.0671764
0.050715
0.0406228
0.0574604
0.129937
0.179245
0.240359
0.430526
0.487649
0.540547
0.358583
0.293161
0.276633
0.240611
0.114743
0.0607424
0.0724061
0.035492
0.0336807
0.0325888
0.0321716
0.0333404
0.0397756
0.0712039
0.102235
0.120329
0.14988
0.168891
0.26688
0.300658
0.376452
0.578418
0.579753
0.585126
0.582908
0.481591
0.449817
0.32036
0.144631
0.135431
0.128513
0.0927105
0.0764456
0.056634
0.048468
0.0372243
0.0544834
0.0751795
0.0667681
0.0599276
0.0409401
0.0362926
0.0544511
0.0866598
0.323309
0.397586
0.421622
0.46414
0.587373
0.58894
0.583943
0.351784
0.193493
0.171394
0.111634
0.0661466
0.0511181
0.073801
0.0535839
0.0469751
0.039408
0.0346982
0.0345654
0.0446359
0.117369
0.140314
0.202644
0.220701
0.235202
0.362098
0.539342
0.416574
0.397255
0.317663
0.267946
0.0999063
0.0890765
0.0408648
0.0641732
0.0708218
0.0441915
0.0382178
0.036566
0.0366475
0.105737
0.156917
0.173363
0.192385
0.258037
0.295393
0.568397
0.582964
0.597162
0.511245
0.476076
0.286232
0.258236
0.226412
0.18899
0.164008
0.148681
0.108589
0.0809702
0.0533966
0.0812954
0.0764974
0.0676397
0.0599612
0.042392
0.038561
0.0367842
0.0429017
0.0709694
0.0887958
0.354525
0.551929
0.574649
0.304489
0.242395
0.216897
0.137339
0.128889
0.0725491
0.0643998
0.0460469
0.0586143
0.0646863
0.0793367
0.082057
0.0510452
0.0416423
0.038033
0.0397178
0.0573225
0.125447
0.140367
0.464789
0.525503
0.599455
0.385747
0.204844
0.188921
0.117805
0.0883771
0.0397755
0.0737371
0.0464343
0.0417289
0.0394106
0.0433184
0.049574
0.224105
0.23892
0.286955
0.539279
0.506927
0.472013
0.454268
0.356893
0.149196
0.0789004
0.0555006
0.0434881
0.086264
0.0745402
0.0612809
0.0449472
0.0422399
0.0412562
0.0404481
0.0795499
0.108849
0.16573
0.193103
0.262048
0.35139
0.395663
0.429064
0.61053
0.612069
0.61786
0.4112
0.346999
0.329887
0.296912
0.271035
0.184377
0.172464
0.140467
0.130405
0.10379
0.0944097
0.0671941
0.0473791
0.0654109
0.0819905
0.0864675
0.0819699
0.0441321
0.0413495
0.0425712
0.136999
0.315423
0.454585
0.500678
0.620336
0.315417
0.254816
0.234091
0.204967
0.115753
0.0835489
0.038484
0.0755429
0.0524298
0.0456752
0.0437195
0.0457081
0.0725566
0.0957247
0.15518
0.186449
0.339149
0.382032
0.422044
0.625174
0.618329
0.535414
0.446732
0.223265
0.155056
0.0546303
0.0433617
0.0893643
0.0750817
0.0588373
0.0453029
0.043757
0.0427627
0.0581756
0.117561
0.217396
0.611507
0.630795
0.612212
0.596775
0.514644
0.397642
0.276095
0.2015
0.131511
0.119706
0.1045
0.0939436
0.0708784
0.0464751
0.0708692
0.0882359
0.0909887
0.066439
0.0494651
0.0455155
0.0451752
0.175862
0.24229
0.273499
0.494061
0.540514
0.630893
0.63728
0.58021
0.384357
0.25885
0.185791
0.142226
0.0786171
0.0577373
0.0359171
0.0827728
0.0468298
0.0464416
0.0452826
0.043637
0.0438133
0.0527873
0.0654868
0.087012
0.205419
0.262639
0.300965
0.379567
0.573859
0.638254
0.426284
0.368688
0.303717
0.243409
0.219812
0.162079
0.0615563
0.0478362
0.0382261
0.083289
0.0577601
0.044656
0.102248
0.148638
0.425289
0.63597
0.646424
0.342656
0.328814
0.120671
0.0407049
0.0744015
0.0907281
0.0924843
0.087031
0.0765127
0.06488
0.050048
0.0475108
0.0468106
0.0437625
0.0454543
0.0584867
0.0777086
0.193284
0.341146
0.644533
0.647292
0.522188
0.502829
0.361524
0.281031
0.199704
0.173286
0.131428
0.100415
0.0753072
0.0333997
0.0807123
0.0468362
0.0463214
0.044438
0.118877
0.169018
0.229654
0.376377
0.496375
0.655696
0.657582
0.48937
0.147758
0.0853754
0.0600324
0.048515
0.0403025
0.0355404
0.0867908
0.0691041
0.0475791
0.0468948
0.0439986
0.0482789
0.0691307
0.0917056
0.275666
0.623588
0.660339
0.556444
0.475208
0.331662
0.262912
0.247154
0.0512342
0.0425569
0.0923123
0.0909062
0.0827931
0.0599182
0.0532367
0.0467143
0.0455896
0.0441496
0.13701
0.261148
0.309052
0.428705
0.48219
0.541959
0.582277
0.460916
0.320499
0.157395
0.117194
0.0721953
0.0613207
0.0373376
0.0321476
0.0811131
0.0471498
0.0466387
0.0439281
0.0554524
0.0821033
0.205605
0.409631
0.463709
0.620098
0.603536
0.422407
0.392832
0.202039
0.181039
0.0998542
0.0831439
0.0532936
0.0423876
0.0754309
0.0751374
0.0663273
0.0470388
0.0469455
0.0453943
0.0469675
0.0694105
0.0968738
0.113069
0.354052
0.577101
0.369181
0.221365
0.12501
0.061093
0.0441303
0.0395245
0.035755
0.0884001
0.0490032
0.0468785
0.0475822
0.047482
0.0447509
0.150232
0.185617
0.253638
0.300219
0.661682
0.675871
0.682039
0.678497
0.653868
0.559959
0.527045
0.453954
0.318354
0.289247
0.261094
0.142355
0.0668734
0.0469639
0.0338614
0.0796208
0.0890348
0.0855044
0.0784828
0.056895
0.0448138
0.0564464
0.0829477
0.229747
0.677016
0.677314
0.183903
0.160932
0.0899605
0.0778467
0.0428695
0.0736059
0.0474945
0.048124
0.0477397
0.0460897
0.131353
0.399964
0.692761
0.691246
0.100102
0.0513294
0.0463935
0.0444565
0.039568
0.0364083
0.0867
0.067719
0.0494349
0.0460366
0.0754556
0.103573
0.171578
0.356321
0.4757
0.690331
0.692139
0.520226
0.405807
0.378905
0.35918
0.225287
0.137026
0.0471453
0.0766731
0.0829327
0.0744148
0.0591841
0.0519384
0.0486671
0.0488997
0.0469291
0.0496826
0.0648353
0.279568
0.436188
0.510811
0.700309
0.624614
0.505958
0.446502
0.315824
0.283074
0.191723
0.112728
0.0635006
0.0536398
0.0456822
0.0441758
0.0378193
0.0704597
0.082551
0.0508617
0.0509614
0.0495167
0.0566303
0.0902103
0.120964
0.193943
0.232242
0.550446
0.5753
0.635931
0.244702
0.157925
0.0824617
0.0710337
0.0469623
0.0463453
0.0431128
0.0758994
0.0500226
0.0487731
0.105588
0.151476
0.350053
0.403355
0.611689
0.47492
0.121375
0.0486139
0.0474899
0.0427829
0.0784207
0.0803983
0.064998
0.0565842
0.0501373
0.0522738
0.0747767
0.47239
0.61406
0.679258
0.697865
0.665684
0.579961
0.436974
0.0897966
0.0605718
0.0471869
0.0425467
0.0710504
0.0770407
0.053483
0.0542711
0.0650124
0.0925893
0.254191
0.437092
0.514335
0.719769
0.388289
0.357875
0.182444
0.141382
0.100628
0.0751304
0.0522878
0.0503129
0.0489196
0.0647795
0.0514413
0.0504114
0.0520678
0.0512901
0.0577158
0.15824
0.215047
0.290467
0.323997
0.721421
0.727799
0.260318
0.217287
0.0476612
0.050744
0.0451337
0.073918
0.0623853
0.0567456
0.0562446
0.0549839
0.085196
0.108155
0.123542
0.184744
0.383085
0.554892
0.724654
0.733449
0.731434
0.574665
0.513857
0.479345
0.330803
0.151094
0.119173
0.104588
0.0642699
0.0538556
0.0475205
0.0509308
0.0724324
0.0664099
0.052337
0.0548167
0.0555532
0.0642564
0.074011
0.717467
0.61574
0.442145
0.420863
0.292819
0.0727067
0.0487692
0.0555054
0.0598482
0.0656829
0.0505751
0.0503567
0.0581201
0.0536366
0.151765
0.241951
0.434317
0.736269
0.543216
0.172778
0.0823413
0.0508541
0.0552726
0.0504363
0.0668205
0.0578817
0.0567537
0.0547173
0.0865634
0.0997042
0.114
0.360099
0.591052
0.66238
0.74234
0.470985
0.385171
0.229465
0.135757
0.11093
0.0928144
0.0627383
0.0512075
0.048015
0.059158
0.057455
0.0665769
0.0608225
0.0538301
0.0558993
0.0605916
0.129129
0.168743
0.194685
0.277147
0.485396
0.538026
0.51794
0.347014
0.190133
0.148647
0.0711469
0.0506979
0.0560029
0.054689
0.0588461
0.063501
0.054812
0.0513485
0.0495355
0.0506275
0.0592702
0.0549066
0.0684782
0.0787288
0.322832
0.626067
0.700549
0.671227
0.61497
0.413075
0.0807145
0.0483581
0.0629636
0.0589429
0.0554611
0.0611306
0.05909
0.0607111
0.0564783
0.0904433
0.11318
0.759732
0.762853
0.728128
0.701867
0.159164
0.108555
0.0910783
0.0545717
0.049942
0.0558946
0.0608099
0.0561795
0.0566688
0.0552243
0.0602872
0.148261
0.202742
0.410555
0.473401
0.532692
0.765754
0.655841
0.587923
0.463286
0.29713
0.236762
0.120394
0.0501807
0.0650357
0.0654561
0.0495477
0.0535474
0.0571316
0.0493072
0.0605363
0.0549618
0.102142
0.131183
0.227968
0.258032
0.598946
0.772255
0.381578
0.183045
0.0799003
0.0692269
0.0601976
0.0552601
0.0624818
0.0685164
0.0601098
0.0573502
0.0519785
0.0514263
0.0556336
0.0598005
0.0614586
0.364352
0.771697
0.777307
0.130782
0.0943115
0.0531168
0.0667212
0.055288
0.0544099
0.049797
0.056322
0.0534691
0.0683179
0.0788115
0.165692
0.300446
0.517109
0.585128
0.625348
0.510441
0.42428
0.143974
0.0501698
0.0529265
0.0620398
0.0445679
0.0501133
0.0611759
0.10286
0.11698
0.131827
0.187048
0.692312
0.782598
0.789382
0.770894
0.588303
0.304867
0.157939
0.108363
0.0691963
0.0580992
0.0507695
0.0723703
0.0644306
0.045562
0.0505249
0.0530549
0.0514797
0.0502944
0.0527042
0.0556696
0.0587483
0.060988
0.0571588
0.0528663
0.0558626
0.0840723
0.145634
0.209686
0.251983
0.444414
0.569671
0.34248
0.204234
0.125233
0.0857974
0.0696351
0.0752926
0.051863
0.0646329
0.763457
0.783576
0.237045
0.176293
0.0734954
0.0537007
0.0516504
0.0626947
0.074191
0.0398453
0.0438197
0.0590703
0.0507126
0.122215
0.490731
0.664642
0.38174
0.136419
0.0908161
0.0585431
0.0768394
0.0791274
0.0684703
0.0482108
0.0505303
0.0507362
0.0515477
0.0565328
0.0615698
0.0614574
0.0532728
0.0484804
0.0567668
0.076289
0.106566
0.135825
0.162037
0.190329
0.396128
0.571297
0.807008
0.803794
0.773838
0.731246
0.691664
0.561035
0.120086
0.077882
0.0523355
0.0573836
0.0795331
0.0436967
0.049121
0.0549872
0.0875435
0.212819
0.254182
0.313108
0.642967
0.749557
0.80552
0.809724
0.717866
0.42149
0.158624
0.104675
0.0542401
0.0705419
0.075644
0.0356076
0.0602135
0.061849
0.0582226
0.0477409
0.0463673
0.0636506
0.118799
0.613328
0.654214
0.529218
0.482611
0.258226
0.141072
0.0632343
0.0537151
0.0648165
0.0794785
0.0844712
0.0722342
0.0370868
0.0450932
0.053233
0.0469504
0.0777153
0.532125
0.689111
0.632471
0.324046
0.193998
0.1197
0.084781
0.0543003
0.040369
0.0464134
0.0496624
0.052541
0.0605844
0.0604396
0.0479727
0.0537191
0.0898383
0.107982
0.179084
0.462055
0.823572
0.827831
0.775017
0.608079
0.168799
0.09546
0.0576502
0.0591334
0.0867793
0.0829002
0.0778732
0.03231
0.0365516
0.0566525
0.0628401
0.0560964
0.0438586
0.0471182
0.136656
0.206598
0.237994
0.71297
0.213053
0.130712
0.0681829
0.0544505
0.0855152
0.0431285
0.0478044
0.0517718
0.0600806
0.0632863
0.0504768
0.0442257
0.0588122
0.0767997
0.0982299
0.161763
0.296731
0.389287
0.838816
0.34775
0.276547
0.235385
0.149019
0.114592
0.0803084
0.0547983
0.0579606
0.0717468
0.0803035
0.0910906
0.0768739
0.0337223
0.0383424
0.0553122
0.0452729
0.0427867
0.116729
0.751753
0.84528
0.820657
0.56499
0.386952
0.173466
0.0992948
0.0572816
0.0651443
0.09218
0.0884732
0.0502517
0.0626418
0.0568686
0.051991
0.0421615
0.0482601
0.0691832
0.0851494
0.141008
0.176852
0.215757
0.260982
0.660562
0.831058
0.848092
0.296145
0.0851046
0.0646428
0.0547419
0.0925874
0.0843453
0.0302077
0.0346489
0.0394579
0.0453892
0.0584429
0.0610668
0.0636363
0.0628079
0.0601962
0.0448933
0.042028
0.0433443
0.0984291
0.847256
0.85137
0.47797
0.185663
0.128786
0.11438
0.072543
0.0602591
0.0853373
0.0959327
0.0799732
0.0426265
0.0469153
0.0561944
0.0774593
0.161129
0.768104
0.241051
0.0990769
0.0563644
0.0711751
0.0949445
0.0316296
0.0380185
0.053537
0.0557959
0.0509011
0.0414807
0.0485456
0.117375
0.146275
0.294674
0.486147
0.700453
0.714193
0.334985
0.203373
0.145355
0.0532779
0.0951418
0.0872601
0.0349836
0.0580069
0.0615972
0.0619877
0.0438044
0.0405332
0.0705809
0.181903
0.203131
0.225581
0.588999
0.630034
0.831526
0.86945
0.822763
0.675764
0.394321
0.265391
0.105162
0.0571277
0.0637671
0.0992446
0.0937149
0.0307524
0.0434259
0.048998
0.0616967
0.058809
0.0418943
0.087045
0.104469
0.132391
0.262535
0.380902
0.866104
0.80414
0.0781207
0.067431
0.0590085
0.0536271
0.0728521
0.0828908
0.0831026
0.0390116
0.0588907
0.0447361
0.0411778
0.0396
0.044965
0.0576898
0.118712
0.747847
0.7694
0.605452
0.160604
0.130732
0.111552
0.0933429
0.0532606
0.100014
0.0992654
0.0911757
0.0330365
0.0543954
0.0579314
0.0525253
0.0465863
0.0398383
0.0683752
0.0799101
0.16759
0.881932
0.440507
0.21611
0.184458
0.050289
0.0634769
0.0899502
0.0442389
0.0511823
0.0415731
0.0391658
0.0417855
0.047367
0.0972521
0.209184
0.808067
0.890444
0.758713
0.316503
0.275931
0.0995431
0.0781564
0.0557107
0.0555092
0.101072
0.0971858
0.0842005
0.0324497
0.0384422
0.0479013
0.0555687
0.0567436
0.0429323
0.120382
0.134492
0.1538
0.23125
0.267046
0.310479
0.475971
0.888064
0.165755
0.140969
0.112071
0.0626945
0.0489679
0.0723247
0.0954566
0.0542253
0.0514266
0.0455998
0.039003
0.0385006
0.0592336
0.0774803
0.089781
0.194399
0.354147
0.558109
0.898922
0.718205
0.645103
0.354791
0.235685
0.0838898
0.0492466
0.0620914
0.0825441
0.100208
0.0916909
0.037224
0.0440855
0.0487203
0.0398269
0.0403182
0.0479612
0.107886
0.893778
0.898742
0.494604
0.212645
0.182493
0.118925
0.0957484
0.0550272
0.0491941
0.100138
0.0839213
0.0343852
0.0413244
0.0500019
0.051343
0.0512484
0.0495074
0.0461932
0.0408303
0.0371315
0.122304
0.136441
0.622315
0.693916
0.729605
0.910722
0.874789
0.28549
0.141704
0.0697419
0.0462961
0.0509093
0.0742989
0.0941615
0.0963164
0.0383538
0.0456969
0.0498654
0.0376
0.0391915
0.0713528
0.0959198
0.151599
0.181156
0.243584
0.272523
0.815897
0.254017
0.193926
0.107112
0.084719
0.05739
0.0903913
0.0327982
0.0433541
0.0462479
0.046924
0.042433
0.0369647
0.0443917
0.0611474
0.0839086
0.22264
0.916207
0.842253
0.355545
0.221238
0.16324
0.0607883
0.0482189
0.0447314
0.0835712
0.0978433
0.0974484
0.0822137
0.0349028
0.0407629
0.0442317
0.0456051
0.0462352
0.0457823
0.044374
0.0426538
0.0397129
0.0371276
0.0365125
0.0385902
0.110744
0.124548
0.297344
0.368185
0.397567
0.303612
0.114184
0.04489
0.0654135
0.0918146
0.0367768
0.0448535
0.0445004
0.0561927
0.139546
0.173521
0.193402
0.434829
0.87903
0.783178
0.689804
0.0992126
0.0815975
0.0467705
0.0750538
0.0876151
0.0314792
0.040515
0.043234
0.0432331
0.0419145
0.0398758
0.0378318
0.0366447
0.0386825
0.044457
0.0865109
0.103606
0.250811
0.835544
0.930924
0.915855
0.582669
0.493702
0.177617
0.14488
0.126025
0.0685759
0.0580932
0.0498567
0.0430659
0.0524965
0.0842361
0.0935835
0.0941465
0.0789659
0.0372933
0.0404971
0.0413868
0.0420961
0.0402109
0.037052
0.0648943
0.07575
0.118123
0.220214
0.273162
0.781795
0.885348
0.243814
0.225547
0.157522
0.110887
0.0882443
0.0427228
0.0885258
0.0323966
0.0408376
0.040921
0.0404111
0.0381542
0.0387677
0.0432218
0.0540093
0.0972475
0.156792
0.935112
0.945213
0.259251
0.205242
0.187573
0.0746464
0.04347
0.0455847
0.0662421
0.0760204
0.0924146
0.081304
0.0347641
0.0382383
0.0392954
0.0401736
0.0394997
0.0389147
0.0379637
0.0380197
0.372298
0.548121
0.711809
0.938211
0.947552
0.750743
0.372743
0.127176
0.0590068
0.0458812
0.0514349
0.0881562
0.0290318
0.0364115
0.0391202
0.0395057
0.0390838
0.0404691
0.0434099
0.0501872
0.066403
0.0803311
0.11302
0.135545
0.253325
0.327195
0.936016
0.29809
0.166232
0.144112
0.10779
0.0942944
0.0812672
0.0414219
0.0437094
0.0865332
0.0304861
0.0343311
0.0378938
0.0394855
0.0393957
0.0393227
0.0397233
0.04072
0.093747
0.184277
0.208767
0.267135
0.227142
0.210472
0.0491572
0.0434285
0.0467587
0.0587393
0.0761038
0.0868587
0.0697539
0.0320204
0.0366977
0.039239
0.0397588
0.0398224
0.0400031
0.040394
0.0448505
0.0504868
0.0592463
0.0772821
0.16161
0.889675
0.851227
0.577921
0.394444
0.241007
0.183393
0.128151
0.041259
0.0414821
0.0666754
0.0817125
0.0766344
0.0390503
0.0406944
0.0425308
0.045117
0.0701162
0.113966
0.131164
0.271206
0.303419
0.466625
0.113759
0.0874702
0.0749671
0.0634791
0.0433046
0.0528184
0.0812219
0.0272738
0.0360486
0.0387013
0.0409287
0.0414957
0.0421318
0.0427752
0.0459647
0.0521879
0.178618
0.226853
0.246687
0.432828
0.620492
0.810035
0.308107
0.194646
0.163007
0.142597
0.0996185
0.0503846
0.0424908
0.040527
0.0462215
0.0802961
0.0622612
0.0314185
0.034532
0.0410844
0.0434569
0.044201
0.064993
0.0850139
0.102605
0.780994
0.937548
0.248484
0.211653
0.0637279
0.0705893
0.0705076
0.0388433
0.0412104
0.0433779
0.0445468
0.0451135
0.0476758
0.0489458
0.055148
0.145718
0.372093
0.887236
0.928588
0.330366
0.262898
0.178117
0.123011
0.0892718
0.0769247
0.0552072
0.0450121
0.0408466
0.0425468
0.047261
0.0534042
0.0750584
0.0602043
0.0271988
0.0306825
0.0343351
0.0378023
0.0483771
0.0765258
0.0975613
0.206809
0.295508
0.967469
0.980846
0.722089
0.194668
0.133609
0.100878
0.0402667
0.0700029
0.0694005
0.0423857
0.0467517
0.0504425
0.0593082
0.066384
0.12579
0.163016
0.189898
0.500551
0.962313
0.566995
0.382878
0.227047
0.154624
0.0677132
0.0486039
0.039501
0.0574262
0.0580577
0.0512177
0.0332299
0.0388525
0.0514251
0.0552111
0.0576746
0.0601907
0.0947072
0.340951
0.865577
0.987595
0.966691
0.240459
0.200884
0.110517
0.0783626
0.0406759
0.0389116
0.0435641
0.0484812
0.0667068
0.0287081
0.0372557
0.044752
0.0486574
0.0689373
0.0777466
0.107372
0.120671
0.142968
0.24478
0.264022
0.401951
0.443462
0.3293
0.268005
0.168358
0.135462
0.0931427
0.0591891
0.0432362
0.0588818
0.0624666
0.0601523
0.0554801
0.0586332
0.0614766
0.0638051
0.0937703
0.134531
0.178462
0.209354
0.961859
0.973652
0.207157
0.122331
0.0688264
0.0380794
0.0387399
0.0431219
0.0522961
0.0509953
0.0431631
0.0321672
0.0369409
0.0421906
0.063575
0.0702308
0.0724738
0.0798718
0.0902073
0.108637
0.229578
0.286483
1
0.906313
0.754027
0.285848
0.178084
0.152523
0.105541
0.0789056
0.0488286
0.0391828
0.0372033
0.0397109
0.0578342
0.0561746
0.0499843
0.056918
0.0796721
0.124364
0.317965
0.233504
0.132308
0.0925818
0.0599631
0.0415852
0.0433152
0.0396413
0.0445512
0.0686674
0.0732297
0.0919115
0.105859
0.170058
0.265844
0.439733
0.951501
0.210969
0.0371003
0.0387236
0.0486686
0.0517314
0.0469998
0.0400535
0.0408496
0.0749603
0.0764877
0.0794004
0.0845183
0.123232
0.15466
0.20117
0.24933
0.390268
0.628877
0.764212
0.935057
0.589648
0.346783
0.296816
0.249118
0.189099
0.148451
0.113556
0.103168
0.0819613
0.0713522
0.052024
0.0422753
0.0354553
0.0362446
0.0435882
0.0488405
0.0465778
0.0342705
0.0376575
0.0474169
0.0587609
0.072299
0.085701
0.0927813
0.109466
0.119379
0.144881
0.233678
0.359864
0.930067
0.940474
0.163943
0.121316
0.0906519
0.0347731
0.039132
0.0395076
0.0346461
0.0436804
0.0873831
0.0922993
0.186854
0.299759
0.864052
0.848623
0.270755
0.128924
0.045282
0.0393238
0.0348739
0.0363796
0.0394042
0.0417054
0.0440241
0.044379
0.0424405
0.039632
0.0351068
0.0750331
0.0872871
0.089612
0.091143
0.100007
0.104571
0.11377
0.138292
0.468547