# vtk DataFile Version 1.0
Unstructured Grid Example
ASCII

DATASET UNSTRUCTURED_GRID
POINTS 5410 float
191 6 0
124 280 0
335 199 0
327 195 0
269 109 0
30 63 0
24 41 0
177 34 0
0 163 0
89 272 0
159 411 0
176 416 0
185 452 0
226 258 0
337 383 0
211 66 0
261 111 0
192 63 0
253 56 0
336 36 0
220 3 0
36 13 0
31 5 0
131 31 0
134 22 0
188 13 0
192 12 0
203 16 0
152 70 0
203 59 0
175 89 0
54 61 0
28 38 0
25 58 0
11 86 0
24 91 0
140 209 0
5 137 0
83 207 0
0 259 0
131 338 0
127 382 0
149 397 0
79 503 0
189 361 0
174 434 0
169 365 0
150 383 0
169 349 0
192 347 0
196 316 0
160 251 0
205 262 0
224 245 0
231 277 0
217 282 0
232 334 0
217 365 0
206 347 0
212 367 0
252 469 0
305 513 0
480 479 0
248 460 0
308 426 0
279 420 0
237 385 0
239 341 0
344 80 0
512 214 0
334 80 0
339 92 0
332 97 0
243 124 0
240 219 0
219 222 0
228 13 0
206 13 0
217 1 0
252 67 0
288 25 0
304 16 0
345 46 0
425 64 0
11 10 0
13 4 0
8 23 0
14 27 0
20 31 0
9 44 0
22 37 0
105 25 0
24 33 0
30 43 0
88 46 0
58 14 0
26 10 0
63 3 0
62 9 0
133 17 0
126 13 0
144 13 0
139 6 0
172 16 0
175 18 0
177 3 0
210 18 0
182 23 0
191 47 0
197 24 0
202 31 0
179 24 0
168 26 0
113 25 0
107 19 0
130 93 0
99 82 0
141 96 0
166 53 0
168 58 0
173 54 0
194 97 0
202 83 0
182 115 0
197 107 0
173 109 0
174 122 0
157 131 0
126 120 0
119 112 0
107 124 0
74 69 0
28 72 0
37 114 0
98 100 0
28 67 0
65 60 0
43 49 0
29 56 0
7 60 0
0 48 0
14 58 0
6 72 0
17 115 0
0 125 0
0 130 0
3 145 0
73 163 0
13 151 0
38 200 0
10 162 0
85 161 0
127 204 0
138 181 0
141 223 0
138 237 0
152 274 0
156 278 0
134 235 0
121 243 0
119 266 0
21 251 0
33 266 0
118 290 0
148 286 0
145 310 0
49 436 0
38 478 0
0 481 0
26 513 0
16 488 0
148 343 0
157 355 0
152 340 0
159 337 0
154 315 0
149 304 0
153 296 0
158 282 0
167 383 0
179 358 0
175 382 0
184 399 0
171 407 0
160 415 0
168 440 0
161 454 0
198 485 0
187 503 0
188 410 0
186 466 0
191 388 0
184 386 0
197 381 0
190 380 0
199 353 0
203 318 0
210 301 0
194 343 0
191 316 0
170 358 0
190 345 0
165 339 0
190 256 0
188 283 0
165 193 0
188 292 0
200 249 0
202 263 0
206 282 0
208 263 0
230 225 0
223 292 0
236 223 0
240 207 0
248 262 0
261 196 0
257 200 0
248 382 0
252 373 0
248 297 0
244 337 0
225 320 0
222 319 0
214 316 0
220 295 0
216 387 0
233 386 0
236 406 0
218 404 0
216 443 0
211 452 0
219 476 0
237 470 0
251 453 0
251 492 0
238 461 0
261 439 0
261 420 0
240 419 0
245 397 0
245 386 0
299 397 0
278 290 0
295 225 0
267 428 0
276 429 0
264 451 0
262 436 0
272 456 0
495 440 0
508 513 0
471 513 0
310 365 0
512 362 0
351 327 0
506 238 0
503 225 0
509 221 0
512 209 0
507 209 0
506 204 0
498 213 0
487 216 0
305 205 0
267 222 0
269 146 0
263 150 0
279 176 0
295 185 0
296 194 0
483 186 0
306 199 0
486 146 0
491 130 0
497 144 0
512 133 0
512 123 0
462 115 0
439 87 0
506 59 0
505 49 0
350 51 0
368 47 0
401 71 0
357 88 0
333 91 0
350 97 0
339 96 0
403 120 0
253 96 0
305 99 0
255 103 0
249 128 0
229 115 0
218 96 0
223 112 0
217 112 0
280 48 0
276 68 0
291 67 0
292 53 0
301 87 0
308 88 0
307 55 0
321 59 0
295 32 0
305 35 0
301 41 0
290 46 0
258 42 0
243 25 0
227 47 0
224 38 0
225 20 0
215 21 0
237 7 0
268 1 0
291 4 0
308 6 0
302 23 0
311 1 0
363 38 0
327 13 0
327 1 0
330 25 0
382 42 0
325 43 0
317 45 0
338 44 0
397 35 0
472 37 0
444 39 0
404 42 0
448 31 0
499 30 0
512 10 0
382 16 0
8 11 0
3 7 0
11 1 0
18 12 0
19 6 0
32 1 0
39 10 0
32 16 0
33 23 0
18 16 0
23 23 0
12 20 0
7 16 0
0 19 0
3 19 0
11 27 0
2 24 0
7 26 0
3 33 0
0 34 0
0 39 0
4 36 0
3 40 0
14 39 0
18 40 0
37 36 0
11 31 0
37 26 0
30 26 0
27 24 0
14 24 0
67 21 0
41 20 0
55 22 0
49 25 0
45 26 0
46 30 0
48 33 0
65 39 0
77 38 0
88 39 0
103 41 0
101 33 0
98 32 0
95 22 0
90 31 0
100 23 0
81 17 0
89 17 0
99 17 0
89 12 0
67 18 0
60 12 0
58 17 0
53 8 0
62 6 0
57 1 0
54 1 0
51 1 0
74 7 0
89 5 0
90 1 0
93 3 0
111 8 0
110 3 0
105 3 0
114 9 0
106 12 0
109 17 0
116 18 0
131 10 0
143 16 0
140 14 0
143 10 0
146 9 0
148 3 0
118 3 0
140 3 0
156 1 0
151 11 0
162 9 0
159 9 0
164 3 0
176 12 0
199 8 0
208 9 0
196 16 0
202 12 0
206 16 0
194 14 0
193 18 0
181 14 0
152 17 0
161 13 0
159 21 0
148 25 0
162 27 0
189 24 0
200 19 0
204 28 0
202 24 0
209 28 0
183 29 0
202 37 0
192 36 0
178 38 0
174 43 0
165 29 0
161 32 0
160 41 0
134 40 0
125 40 0
129 38 0
141 35 0
140 31 0
145 29 0
129 26 0
141 20 0
113 22 0
122 20 0
104 19 0
110 24 0
116 25 0
113 36 0
111 43 0
105 43 0
118 58 0
128 44 0
132 55 0
122 65 0
133 78 0
119 78 0
129 85 0
148 69 0
139 85 0
136 75 0
155 65 0
142 56 0
150 56 0
137 55 0
149 48 0
158 56 0
155 54 0
158 46 0
172 46 0
174 57 0
191 55 0
177 45 0
195 45 0
177 72 0
208 85 0
186 77 0
197 78 0
173 78 0
167 67 0
166 80 0
157 86 0
172 104 0
158 113 0
159 118 0
179 103 0
182 86 0
185 111 0
199 115 0
205 120 0
195 130 0
207 128 0
206 155 0
207 181 0
189 133 0
169 132 0
168 159 0
157 142 0
143 180 0
147 183 0
130 165 0
144 160 0
133 136 0
135 126 0
141 112 0
145 108 0
118 107 0
121 92 0
130 122 0
117 125 0
120 129 0
121 143 0
120 169 0
119 174 0
109 129 0
112 162 0
95 127 0
103 146 0
89 133 0
78 173 0
68 136 0
67 172 0
94 95 0
91 117 0
70 101 0
103 116 0
106 102 0
111 102 0
112 107 0
115 119 0
99 72 0
99 77 0
99 88 0
108 64 0
113 58 0
108 54 0
94 44 0
105 50 0
79 45 0
84 45 0
72 44 0
65 52 0
58 54 0
74 54 0
88 91 0
94 64 0
27 100 0
36 101 0
47 91 0
38 83 0
29 82 0
49 76 0
44 45 0
43 62 0
16 51 0
13 46 0
23 61 0
26 63 0
0 70 0
11 100 0
0 75 0
16 75 0
7 118 0
0 120 0
3 132 0
12 132 0
14 110 0
39 108 0
46 123 0
31 112 0
23 142 0
42 134 0
57 144 0
46 162 0
20 176 0
14 145 0
9 150 0
7 157 0
9 187 0
38 185 0
22 192 0
0 193 0
47 215 0
49 226 0
13 233 0
112 219 0
116 237 0
94 234 0
52 238 0
99 213 0
106 207 0
55 203 0
70 189 0
117 185 0
117 203 0
116 192 0
122 195 0
129 210 0
134 197 0
151 205 0
133 190 0
146 226 0
147 220 0
154 232 0
135 215 0
128 239 0
125 224 0
126 220 0
121 237 0
136 246 0
135 249 0
137 253 0
139 255 0
139 251 0
146 257 0
143 252 0
145 240 0
148 262 0
153 288 0
151 278 0
144 283 0
144 279 0
144 260 0
144 267 0
135 293 0
128 270 0
127 284 0
128 265 0
124 263 0
126 250 0
101 242 0
130 247 0
92 247 0
35 251 0
47 250 0
9 255 0
11 263 0
24 273 0
16 283 0
27 282 0
38 276 0
124 299 0
112 303 0
9 306 0
91 313 0
128 303 0
129 297 0
135 296 0
132 301 0
133 330 0
135 314 0
136 341 0
132 327 0
125 317 0
116 338 0
0 329 0
121 326 0
0 379 0
110 360 0
21 370 0
59 382 0
18 414 0
11 504 0
56 470 0
0 447 0
126 437 0
120 471 0
118 426 0
128 404 0
135 371 0
124 343 0
133 361 0
127 353 0
148 359 0
144 349 0
143 359 0
142 371 0
138 375 0
141 381 0
144 400 0
145 513 0
151 400 0
149 412 0
151 420 0
153 397 0
153 374 0
152 350 0
154 371 0
149 362 0
148 338 0
154 338 0
154 335 0
146 330 0
144 340 0
143 335 0
136 330 0
137 345 0
143 306 0
143 296 0
142 316 0
144 328 0
149 297 0
153 309 0
152 303 0
151 325 0
161 368 0
159 370 0
155 360 0
161 374 0
163 378 0
176 361 0
179 379 0
170 395 0
175 396 0
170 390 0
167 395 0
165 380 0
162 386 0
162 392 0
156 382 0
168 406 0
166 404 0
166 401 0
166 408 0
169 409 0
160 469 0
164 428 0
165 416 0
172 429 0
169 434 0
171 454 0
178 413 0
175 407 0
175 401 0
169 401 0
170 398 0
186 427 0
179 416 0
181 435 0
187 430 0
189 449 0
191 460 0
185 472 0
180 468 0
196 469 0
201 491 0
203 460 0
199 458 0
195 432 0
201 416 0
201 427 0
194 406 0
200 387 0
202 404 0
198 405 0
198 398 0
193 399 0
191 404 0
188 406 0
183 389 0
185 362 0
182 361 0
181 364 0
179 366 0
192 385 0
202 366 0
208 377 0
209 366 0
208 351 0
201 351 0
207 358 0
193 353 0
207 334 0
198 332 0
204 328 0
190 326 0
184 344 0
186 326 0
182 337 0
179 348 0
190 352 0
184 354 0
180 355 0
190 355 0
172 343 0
174 358 0
172 346 0
170 352 0
167 347 0
162 350 0
159 353 0
156 344 0
154 320 0
154 329 0
159 319 0
159 334 0
162 317 0
165 327 0
169 326 0
172 334 0
182 251 0
184 298 0
178 301 0
173 267 0
172 286 0
159 261 0
156 309 0
164 291 0
163 236 0
162 244 0
162 201 0
172 200 0
174 185 0
184 198 0
184 223 0
191 244 0
196 237 0
195 193 0
202 245 0
192 269 0
202 275 0
197 279 0
193 279 0
199 283 0
209 240 0
203 286 0
208 258 0
205 289 0
205 240 0
206 236 0
203 232 0
205 206 0
214 196 0
226 181 0
225 206 0
213 215 0
225 239 0
213 223 0
220 228 0
229 235 0
230 239 0
229 231 0
226 230 0
231 213 0
230 174 0
236 199 0
236 208 0
248 178 0
247 182 0
239 154 0
248 172 0
248 137 0
253 173 0
256 178 0
257 130 0
249 194 0
252 229 0
249 202 0
244 204 0
243 231 0
241 214 0
238 234 0
238 195 0
238 256 0
237 261 0
231 257 0
239 259 0
244 258 0
248 256 0
251 253 0
254 239 0
253 262 0
253 281 0
248 269 0
247 275 0
237 272 0
234 287 0
232 285 0
231 274 0
228 275 0
229 281 0
224 277 0
227 270 0
225 263 0
223 253 0
228 263 0
230 248 0
217 259 0
210 250 0
214 254 0
221 255 0
211 268 0
216 285 0
211 294 0
219 288 0
215 322 0
211 308 0
216 301 0
221 304 0
221 328 0
222 309 0
226 304 0
213 334 0
218 328 0
222 338 0
219 367 0
213 353 0
211 346 0
210 343 0
210 336 0
217 397 0
213 382 0
217 392 0
216 376 0
216 421 0
212 427 0
218 483 0
213 485 0
226 464 0
221 513 0
227 513 0
220 507 0
229 451 0
221 449 0
223 403 0
228 401 0
233 422 0
235 393 0
245 422 0
244 447 0
243 464 0
246 466 0
230 471 0
231 476 0
255 434 0
251 481 0
251 433 0
250 425 0
254 424 0
255 397 0
251 415 0
259 417 0
246 345 0
253 387 0
240 387 0
240 350 0
239 380 0
229 348 0
232 355 0
234 359 0
234 300 0
231 323 0
233 308 0
229 300 0
240 320 0
244 295 0
251 340 0
258 295 0
268 286 0
260 257 0
260 275 0
269 257 0
277 254 0
292 243 0
278 281 0
281 389 0
291 404 0
289 357 0
276 301 0
274 383 0
259 375 0
266 391 0
265 312 0
268 437 0
260 414 0
262 417 0
266 408 0
261 442 0
261 446 0
267 467 0
261 468 0
297 461 0
270 501 0
292 477 0
292 513 0
296 449 0
280 426 0
271 411 0
277 407 0
339 485 0
490 463 0
500 503 0
499 492 0
491 506 0
448 513 0
433 513 0
481 513 0
512 506 0
503 508 0
504 513 0
512 510 0
505 498 0
512 487 0
512 407 0
501 473 0
476 392 0
512 245 0
340 288 0
338 336 0
321 246 0
312 321 0
310 404 0
307 385 0
449 241 0
374 238 0
333 236 0
406 237 0
462 243 0
495 228 0
507 230 0
512 229 0
504 212 0
508 216 0
509 213 0
498 220 0
497 207 0
512 205 0
508 201 0
512 196 0
452 205 0
473 203 0
494 200 0
467 208 0
490 211 0
445 227 0
488 228 0
480 228 0
[...]
CELL_DATA 10574
COLOR_SCALARS ColorSpace 1
0.458824
0.681046
0.23268
0.25098
0.176471
0.301961
0.164706
0.572549
0.775163
0.440523
0.560784
0.313725
0.52549
0.503268
0.48366
0.471895
0.410458
0.218301
0.346405
0.633987
0.226144
0.881046
0.20915
0.756863
0.392157
0.568627
0.239216
0.179085
0.453595
0.503268
0.410458
0.236601
0.698039
0.735948
0.494118
0.592157
0.571242
0.262745
0.530719
0.509804
0.484967
0.414379
0.444444
0.201307
0.447059
0.262745
0.341176
0.228758
0.522876
0.397386
0.528105
0.60915
0.354248
0.515033
0.607843
0.233987
0.552941
0.452288
0.644444
0.288889
0.312418
0.538562
0.496732
0.34902
0.431373
0.579085
0.541176
0.177778
0.266667
0.249673
0.405229
0.467974
0.286275
0.666667
0.624837
0.271895
0.718954
0.581699
0.627451
0.243137
0.24183
0.571242
0.245752
0.398693
0.639216
0.912418
0.248366
0.816993
0.30719
0.69281
0.240523
0.684967
0.282353
0.253595
0.186928
0.239216
0.243137
0.175163
0.189542
0.219608
0.239216
0.181699
0.296732
0.25098
0.267974
0.243137
0.690196
0.186928
0.279739
0.224837
0.215686
0.249673
0.291503
0.235294
0.913725
0.51634
0.915033
0.277124
0.304575
0.488889
0.743791
0.882353
0.407843
0.296732
0.253595
0.715033
0.269281
0.792157
0.732026
0.601307
0.188235
0.551634
0.508497
0.783007
0.398693
0.522876
0.171242
0.211765
0.747712
0.196078
0.19085
0.269281
0.247059
0.63268
0.366013
0.496732
0.240523
0.236601
0.48366
0.166013
0.245752
0.593464
0.538562
0.671895
0.746405
0.670588
0.679739
0.627451
0.34902
0.640523
0.462745
0.448366
0.363399
0.30719
0.495425
0.301961
0.495425
0.541176
0.547712
0.462745
0.467974
0.301961
0.49281
0.295425
0.427451
0.426144
0.376471
0.197386
0.156863
0.784314
0.52549
0.418301
0.50719
0.253595
0.206536
0.207843
0.509804
0.453595
0.213072
0.445752
0.363399
0.249673
0.202614
0.226144
0.469281
0.215686
0.423529
0.427451
0.419608
0.230065
0.312418
0.585621
0.393464
0.575163
0.471895
0.577778
0.586928
0.495425
0.545098
0.389542
0.54902
0.415686
0.393464
0.496732
0.588235
0.371242
0.397386
0.218301
0.458824
0.419608
0.454902
0.562092
0.443137
0.613072
0.237908
0.383007
0.247059
0.186928
0.563399
0.31634
0.490196
0.631373
0.606536
0.607843
0.660131
0.345098
0.173856
0.247059
0.64183
0.619608
0.622222
0.173856
0.176471
0.470588
0.245752
0.611765
0.511111
0.31634
0.237908
0.258824
0.452288
0.449673
0.520261
0.554248
0.551634
0.562092
0.605229
0.475817
0.571242
0.535948
0.532026
0.554248
0.535948
0.50719
0.458824
0.518954
0.440523
0.318954
0.537255
0.496732
0.471895
0.534641
0.51634
0.542484
0.559477
0.522876
0.533333
0.517647
0.439216
0.52549
0.537255
0.253595
0.494118
0.529412
0.568627
0.533333
0.586928
0.559477
0.467974
0.172549
0.593464
0.52549
0.168627
0.640523
0.253595
0.633987
0.211765
0.644444
0.253595
0.224837
0.273203
0.227451
0.648366
0.220915
0.610458
0.252288
0.517647
0.635294
0.579085
0.499346
0.708497
0.573856
0.635294
0.623529
0.176471
0.626144
0.479739
0.27451
0.891503
0.896732
0.564706
0.878431
0.904575
0.88366
0.887582
0.881046
0.235294
0.675817
0.184314
0.752941
0.462745
0.188235
0.188235
0.261438
0.298039
0.2
0.266667
0.330719
0.247059
0.222222
0.19085
0.218301
0.179085
0.235294
0.233987
0.254902
0.219608
0.24183
0.260131
0.551634
0.220915
0.54902
0.65098
0.913725
0.715033
0.833987
0.857516
0.912418
0.911111
0.915033
0.862745
0.871895
0.262745
0.224837
0.905882
0.366013
0.279739
0.261438
0.278431
0.269281
0.253595
0.256209
0.215686
0.201307
0.213072
0.233987
0.2
0.24183
0.189542
0.256209
0.230065
0.267974
0.188235
0.291503
0.245752
0.194771
0.269281
0.270588
0.266667
0.290196
0.196078
0.207843
0.207843
0.197386
0.193464
0.159477
0.198693
0.256209
0.201307
0.239216
0.213072
0.230065
0.207843
0.206536
0.262745
0.179085
0.269281
0.278431
0.211765
0.287582
0.704575
0.535948
0.189542
0.168627
0.669281
0.330719
0.750327
0.179085
0.754248
0.718954
0.793464
0.83268
0.848366
0.712418
0.522876
0.713725
0.766013
0.856209
0.330719
0.393464
0.24183
0.248366
0.185621
0.224837
0.247059
0.213072
0.277124
0.296732
0.393464
0.844444
0.284967
0.742484
0.25098
0.236601
0.39085
0.298039
0.308497
0.30719
0.597386
0.247059
0.91634
0.23268
0.369935
0.277124
0.896732
0.903268
0.260131
0.262745
0.311111
0.27451
0.309804
0.290196
0.301961
0.275817
0.321569
0.308497
0.393464
0.847059
0.870588
0.704575
0.379085
0.775163
0.738562
0.816993
0.334641
0.300654
0.414379
0.500654
0.917647
0.896732
0.308497
0.291503
0.440523
0.915033
0.91634
0.810458
0.917647
0.792157
0.83268
0.878431
0.792157
0.884967
0.768627
0.701961
0.785621
0.886275
0.905882
0.40915
0.792157
0.783007
0.873203
0.843137
0.321569
0.912418
0.901961
0.775163
0.852288
0.746405
0.705882
0.652288
0.705882
0.385621
0.171242
0.265359
0.742484
0.735948
0.75817
0.664052
0.766013
0.610458
0.690196
0.708497
0.606536
0.869281
0.724183
0.648366
0.909804
0.75817
0.852288
0.884967
0.835294
0.759477
0.743791
0.532026
0.788235
0.420915
0.6
0.766013
0.664052
0.440523
0.299346
0.419608
0.766013
0.605229
0.786928
0.726797
0.218301
0.631373
0.769935
0.759477
0.745098
0.711111
0.843137
0.734641
0.282353
0.189542
0.501961
0.738562
0.192157
0.180392
0.184314
0.201307
0.228758
0.223529
0.681046
0.541176
0.171242
0.179085
0.193464
0.216993
0.15817
0.542484
0.168627
0.24183
0.20915
0.45098
0.214379
0.176471
0.181699
0.321569
0.226144
0.201307
0.193464
0.583007
0.643137
0.71634
0.645752
0.643137
0.393464
0.734641
0.29281
0.498039
0.188235
0.215686
0.215686
0.414379
0.805229
0.592157
0.550327
0.586928
0.542484
0.258824
0.261438
0.239216
0.359477
0.239216
0.210458
0.585621
0.598693
0.71634
0.603922
0.522876
0.695425
0.449673
0.849673
0.453595
0.643137
0.745098
0.265359
0.341176
0.394771
0.779085
0.460131
0.538562
0.581699
0.235294
0.545098
0.461438
0.789542
0.711111
0.543791
0.783007
0.763399
0.718954
0.335948
0.72549
0.777778
0.47451
0.797386
0.756863
0.576471
0.772549
0.711111
0.422222
0.311111
0.440523
0.39085
0.47451
0.338562
0.484967
0.776471
0.785621
0.454902
0.487582
0.691503
0.372549
0.35817
0.342484
0.50719
0.392157
0.45098
0.266667
0.465359
0.381699
0.301961
0.28366
0.315033
0.284967
0.304575
0.281046
0.457516
0.406536
0.226144
0.452288
0.383007
0.470588
0.467974
0.435294
0.453595
0.457516
0.482353
0.452288
0.481046
0.460131
0.454902
0.475817
0.513725
0.504575
0.461438
0.464052
0.329412
0.384314
0.48366
0.500654
0.416993
0.482353
0.470588
0.305882
0.475817
0.388235
0.384314
0.335948
0.324183
0.298039
0.337255
0.379085
0.416993
0.299346
0.499346
0.45098
0.491503
0.405229
0.500654
0.383007
0.418301
0.398693
0.342484
0.346405
0.305882
0.254902
0.198693
0.354248
0.220915
0.210458
0.189542
0.265359
0.258824
0.435294
0.254902
0.214379
0.216993
0.20915
0.214379
0.198693
0.230065
0.203922
0.233987
0.220915
0.339869
0.424837
0.407843
0.372549
0.372549
0.351634
0.375163
0.371242
0.34902
0.457516
0.49281
0.618301
0.252288
0.210458
0.461438
0.210458
0.220915
0.220915
0.210458
0.210458
0.397386
0.207843
0.69281
0.205229
0.453595
0.202614
0.40915
0.453595
0.337255
0.383007
0.210458
0.403922
0.435294
0.211765
0.206536
0.456209
0.333333
0.244444
0.213072
0.281046
0.288889
0.376471
0.342484
0.347712
0.684967
0.444444
0.449673
0.207843
0.48366
0.517647
0.447059
0.490196
0.686275
0.465359
0.213072
0.332026
0.207843
0.260131
0.312418
0.249673
0.575163
0.245752
0.346405
0.573856
0.48366
0.300654
0.453595
0.49281
0.494118
0.381699
0.457516
0.564706
0.573856
0.44183
0.491503
0.511111
0.426144
0.402614
0.458824
0.431373
0.498039
0.499346
0.427451
0.550327
0.393464
0.501961
0.379085
0.576471
0.559477
0.379085
0.401307
0.520261
0.584314
0.45098
0.401307
0.470588
0.423529
0.597386
0.44183
0.520261
0.342484
0.541176
0.177778
0.575163
0.596078
0.397386
0.533333
0.505882
0.2
0.504575
0.27451
0.135948
0.227451
0.138562
0.402614
0.164706
0.164706
0.380392
0.145098
0.490196
0.48366
0.342484
0.406536
0.517647
0.456209
0.418301
0.435294
0.315033
0.43268
0.481046
0.192157
0.351634
0.35817
0.322876
0.405229
0.415686
0.443137
0.173856
0.205229
0.296732
0.206536
0.231373
0.258824
0.154248
0.14902
0.155556
0.176471
0.141176
0.230065
0.196078
0.236601
0.177778
0.487582
0.139869
0.226144
0.180392
0.403922
0.175163
0.575163
0.508497
0.597386
0.142484
0.403922
0.192157
0.386928
0.159477
0.185621
0.142484
0.25098
0.145098
0.159477
0.424837
0.137255
0.163399
0.326797
0.134641
0.32549
0.147712
0.168627
0.530719
0.25098
0.440523
0.627451
0.546405
0.496732
0.542484
0.430065
0.594771
0.59085
0.547712
0.631373
0.354248
0.624837
0.633987
0.496732
0.624837
0.554248
0.572549
0.628758
0.35817
0.563399
0.613072
0.576471
0.592157
0.624837
0.389542
0.583007
0.188235
0.628758
0.487582
0.330719
0.486275
0.614379
0.615686
0.589542
0.179085
0.566013
0.172549
0.173856
0.183007
0.19085
0.171242
0.160784
0.168627
0.185621
0.172549
0.176471
0.175163
0.160784
0.172549
0.169935
0.162092
0.164706
0.168627
0.168627
0.180392
0.291503
0.184314
0.16732
0.186928
0.164706
0.611765
0.173856
0.163399
0.164706
0.175163
0.6
0.231373
0.172549
0.184314
0.175163
0.495425
0.377778
0.585621
0.240523
0.231373
0.226144
0.172549
0.181699
0.194771
0.237908
0.183007
0.435294
0.416993
0.573856
0.588235
0.345098
0.469281
0.383007
0.49281
0.411765
0.569935
0.24183
0.559477
0.6
0.59085
0.616993
0.575163
0.585621
0.626144
0.598693
0.571242
0.576471
0.572549
0.59085
0.579085
0.572549
0.543791
0.56732
0.573856
0.54902
0.594771
0.50719
0.454902
0.381699
0.347712
0.509804
0.31634
0.545098
0.311111
0.583007
0.494118
0.137255
0.535948
0.236601
0.569935
0.575163
0.139869
0.142484
0.138562
0.220915
0.235294
0.267974
0.392157
0.284967
0.31634
0.138562
0.532026
0.524183
0.414379
0.470588
0.515033
0.535948
0.518954
0.547712
0.545098
0.465359
0.560784
0.538562
0.580392
0.593464
0.588235
0.511111
0.560784
0.550327
0.552941
0.533333
0.532026
0.564706
0.584314
0.550327
0.521569
0.530719
0.55817
0.532026
0.484967
0.512418
0.560784
0.552941
0.402614
0.354248
0.464052
0.413072
0.535948
0.515033
0.54902
0.546405
0.533333
0.511111
0.554248
0.524183
0.488889
0.542484
0.537255
0.538562
0.528105
0.533333
0.539869
0.528105
0.529412
0.530719
0.495425
0.530719
0.503268
0.562092
0.545098
0.505882
0.542484
0.535948
0.443137
0.52549
0.588235
0.509804
0.550327
0.449673
0.512418
0.467974
0.575163
0.530719
0.388235
0.423529
0.51634
0.521569
0.539869
0.518954
0.539869
0.575163
0.552941
0.550327
0.524183
0.583007
0.581699
0.588235
0.505882
0.589542
0.566013
0.580392
0.611765
0.50719
0.633987
0.552941
0.633987
0.616993
0.498039
0.585621
0.615686
0.607843
0.622222
0.645752
0.586928
0.566013
0.6
0.551634
0.63268
0.230065
0.619608
0.603922
0.631373
0.597386
0.614379
0.630065
0.639216
0.543791
0.315033
0.534641
0.237908
0.205229
0.454902
0.653595
0.239216
0.168627
0.236601
0.166013
0.175163
0.235294
0.588235
0.322876
0.627451
0.213072
0.637908
0.273203
0.55817
0.48366
0.620915
0.636601
0.598693
0.252288
0.660131
0.247059
0.644444
0.286275
0.179085
0.669281
0.19085
0.196078
0.267974
0.247059
0.228758
0.270588
0.301961
0.227451
0.270588
0.244444
0.252288
0.257516
0.27451
0.260131
0.226144
0.261438
0.173856
0.577778
0.270588
0.20915
0.211765
0.196078
0.214379
0.213072
0.656209
0.277124
0.592157
0.482353
0.664052
0.626144
0.658824
0.652288
0.636601
0.652288
0.636601
0.63268
0.445752
0.627451
0.585621
0.589542
0.573856
0.569935
0.579085
0.589542
0.551634
0.559477
0.577778
0.562092
0.490196
0.569935
0.49281
0.569935
0.571242
0.584314
0.63268
0.658824
0.566013
0.665359
0.644444
0.579085
0.564706
0.623529
0.823529
0.444444
0.228758
0.478431
0.656209
0.30719
0.581699
0.288889
0.277124
0.586928
0.308497
0.273203
0.189542
0.245752
0.214379
0.606536
0.193464
0.528105
0.652288
0.613072
0.427451
0.583007
0.613072
0.589542
0.552941
0.768627
0.524183
0.613072
0.658824
0.781699
0.547712
0.734641
0.890196
0.862745
0.878431
0.899346
0.884967
0.819608
0.730719
0.696732
0.915033
0.764706
0.905882
0.805229
0.803922
0.747712
0.282353
0.839216
0.598693
0.6
0.616993
0.343791
0.620915
0.620915
0.560784
0.602614
0.243137
0.623529
0.311111
0.31634
0.620915
0.311111
0.779085
0.321569
0.869281
0.750327
0.746405
0.576471
0.896732
0.734641
0.738562
0.627451
0.623529
0.669281
0.576471
0.726797
0.300654
0.300654
0.313725
0.203922
0.222222
0.220915
0.457516
0.298039
0.213072
0.267974
0.264052
0.239216
0.298039
0.214379
0.237908
0.213072
0.580392
0.196078
0.465359
0.192157
0.351634
0.25098
0.453595
0.618301
0.60915
0.264052
0.228758
0.236601
0.223529
0.273203
0.269281
0.206536
0.193464
0.223529
0.202614
0.27451
0.252288
0.270588
0.253595
0.247059
0.256209
0.294118
0.257516
0.215686
0.265359
0.265359
0.265359
0.247059
0.279739
0.214379
0.24183
0.177778
0.213072
0.210458
0.194771
0.31634
0.261438
0.244444
0.253595
0.23268
0.30719
0.305882
0.243137
0.254902
0.256209
0.552941
0.296732
0.422222
0.305882
0.277124
0.345098
0.35817
0.258824
0.300654
0.275817
0.658824
0.266667
0.282353
0.605229
0.278431
0.309804
0.915033
0.905882
0.657516
0.837908
0.606536
0.64183
0.383007
0.671895
0.652288
0.700654
0.911111
0.913725
0.322876
0.419608
0.236601
0.332026
0.256209
0.233987
0.235294
0.253595
0.29281
0.249673
0.257516
0.615686
0.324183
0.298039
0.575163
0.579085
0.296732
0.286275
0.269281
0.728105
0.275817
0.908497
0.917647
0.29281
0.91634
0.755556
0.426144
0.264052
0.500654
0.901961
0.281046
0.279739
0.282353
0.279739
0.281046
0.301961
0.270588
0.291503
0.281046
0.308497
0.219608
0.239216
0.2
0.267974
0.236601
0.233987
0.266667
0.257516
0.226144
0.205229
0.231373
0.226144
0.256209
0.252288
0.224837
0.236601
0.194771
0.244444
0.223529
0.236601
0.211765
0.266667
0.186928
0.202614
0.175163
0.28366
0.278431
0.27451
0.295425
0.300654
0.294118
0.328105
0.258824
0.27451
0.249673
0.227451
0.267974
0.267974
0.237908
0.230065
0.194771
0.247059
0.245752
0.265359
0.193464
0.206536
0.202614
0.231373
0.203922
0.27451
0.258824
0.266667
0.244444
0.244444
0.270588
0.194771
0.198693
0.278431
0.216993
0.224837
0.282353
0.223529
0.23268
0.207843
0.201307
0.286275
0.223529
0.186928
0.23268
0.261438
0.267974
0.258824
0.318954
0.240523
0.231373
0.253595
0.222222
0.278431
0.233987
0.301961
0.233987
0.318954
0.237908
0.215686
0.233987
0.214379
0.257516
0.257516
0.245752
0.220915
0.27451
0.188235
0.203922
0.19085
0.24183
0.231373
0.202614
0.197386
0.223529
0.219608
0.197386
0.240523
0.247059
0.228758
0.214379
0.23268
0.228758
0.244444
0.239216
0.243137
0.222222
0.245752
0.243137
0.260131
0.219608
0.2
0.228758
0.245752
0.198693
0.173856
0.162092
0.16732
0.168627
0.160784
0.160784
0.206536
0.197386
0.168627
0.227451
0.235294
0.203922
0.210458
0.166013
0.215686
0.197386
0.218301
0.23268
0.262745
0.235294
0.181699
0.215686
0.224837
0.177778
0.193464
0.194771
0.205229
0.256209
0.211765
0.198693
0.211765
0.239216
0.275817
0.181699
0.193464
0.184314
0.189542
0.185621
0.194771
0.215686
0.156863
0.169935
0.168627
0.168627
0.181699
0.196078
0.163399
0.176471
0.381699
0.206536
0.194771
0.713725
0.2
0.253595
0.23268
0.196078
0.239216
0.724183
0.694118
0.708497
0.428758
0.720261
0.589542
0.457516
0.68366
0.34902
0.295425
0.171242
0.673203
0.188235
0.67451
0.248366
0.406536
0.180392
0.775163
0.332026
0.486275
0.171242
0.210458
0.193464
0.776471
0.193464
0.218301
0.216993
0.264052
0.631373
0.760784
0.279739
0.219608
0.712418
0.431373
0.728105
0.718954
0.691503
0.666667
0.610458
0.601307
0.575163
0.738562
0.664052
0.258824
0.724183
0.701961
0.207843
0.215686
0.711111
0.27451
0.436601
0.286275
0.699346
0.284967
0.303268
0.360784
0.341176
0.70719
0.326797
0.311111
0.513725
0.739869
0.76732
0.72549
0.479739
0.373856
0.737255
0.566013
0.533333
0.311111
0.475817
0.729412
0.28366
0.52549
0.424837
0.267974
0.298039
0.231373
0.227451
0.315033
0.230065
0.214379
0.330719
0.196078
0.264052
0.295425
0.299346
0.435294
0.239216
0.581699
0.580392
0.29281
0.447059
0.287582
0.718954
0.715033
0.266667
0.326797
0.284967
0.224837
0.236601
0.266667
0.233987
0.40915
0.184314
0.257516
0.194771
0.265359
0.248366
0.219608
0.227451
0.227451
0.308497
0.202614
0.214379
0.216993
0.218301
0.214379
0.275817
0.211765
0.193464
0.205229
0.218301
0.27451
0.315033
0.286275
0.257516
0.566013
0.215686
0.247059
0.59085
0.185621
0.698039
0.416993
0.296732
0.717647
0.233987
0.301961
0.19085
0.194771
0.201307
0.219608
0.248366
0.265359
0.260131
0.236601
0.28366
0.203922
0.260131
0.258824
0.287582
0.28366
0.269281
0.266667
0.900654
0.287582
0.381699
0.76732
0.290196
0.277124
0.901961
0.905882
0.901961
0.431373
0.252288
0.269281
0.254902
0.254902
0.279739
0.258824
0.30719
0.288889
0.279739
0.273203
0.291503
0.301961
0.282353
0.295425
0.243137
0.29281
0.301961
0.264052
0.47451
0.294118
0.351634
0.277124
0.352941
0.330719
0.284967
0.287582
0.299346
0.759477
0.248366
0.305882
0.278431
0.296732
0.277124
0.29281
0.688889
0.311111
0.324183
0.294118
0.848366
0.304575
0.721569
0.330719
0.780392
0.837908
0.309804
0.388235
0.721569
0.407843
0.452288
0.512418
0.373856
0.352941
0.724183
0.732026
0.715033
0.781699
0.277124
0.509804
0.288889
0.583007
0.756863
0.704575
0.375163
0.312418
0.75817
0.752941
0.380392
0.75817
0.720261
0.785621
0.766013
0.728105
0.751634
0.610458
0.730719
0.772549
0.732026
0.624837
0.737255
0.760784
0.74902
0.720261
0.783007
0.780392
0.768627
0.779085
0.830065
0.822222
0.768627
0.852288
0.746405
0.764706
0.726797
0.741176
0.867974
0.738562
0.879739
0.729412
0.684967
0.88366
0.766013
0.729412
0.308497
0.722876
0.329412
0.301961
0.311111
0.309804
0.398693
0.88366
0.320261
0.339869
0.351634
0.304575
0.74902
0.917647
0.577778
0.300654
0.576471
0.844444
0.74902
0.905882
0.91634
0.917647
0.684967
0.786928
0.63268
0.747712
0.343791
0.717647
0.816993
0.798693
0.724183
0.91634
0.917647
0.917647
0.91634
0.917647
0.917647
0.91634
0.917647
0.917647
0.917647
0.917647
0.917647
0.917647
0.917647
0.917647
0.917647
0.917647
0.917647
0.917647
0.917647
0.882353
0.917647
0.860131
0.91634
0.91634
0.861438
0.91634
0.752941
0.773856
0.781699
0.756863
0.772549
0.860131
0.633987
0.759477
0.818301
0.864052
0.871895
0.867974
0.826144
0.831373
0.797386
0.844444
0.764706
0.794771
0.858824
0.780392
0.882353
0.89281
0.909804
0.903268
0.90719
0.903268
0.911111
0.840523
0.419608
0.895425
0.905882
0.769935
0.577778
0.840523
0.904575
0.373856
0.333333
0.85098
0.873203
0.908497
0.592157
0.91634
0.84183
0.673203
0.864052
0.908497
0.784314
0.816993
0.831373
0.857516
0.918954
0.606536
0.878431
0.888889
0.89281
0.898039
0.845752
0.891503
0.805229
0.726797
0.728105
0.784314
0.741176
0.83268
0.763399
0.786928
0.79085
0.653595
0.773856
0.811765
0.769935
0.602614
0.738562
0.76732
0.620915
0.626144
0.662745
0.759477
0.509804
0.756863
0.686275
0.789542
0.759477
0.780392
0.789542
0.728105
0.640523
0.637908
0.688889
0.751634
0.763399
0.728105
0.624837
0.747712
0.628758
0.741176
0.729412
0.764706
0.764706
0.738562
0.75817
0.772549
0.732026
0.214379
0.75817
0.735948
0.205229
0.556863
0.201307
0.230065
0.248366
0.281046
0.605229
0.541176
0.569935
0.704575
0.436601
0.254902
0.726797
0.262745
0.729412
0.755556
0.760784
0.755556
0.769935
0.754248
0.792157
0.823529
0.605229
0.814379
0.630065
0.831373
0.814379
0.784314
0.779085
0.775163
0.801307
0.751634
0.903268
0.869281
0.786928
0.775163
0.712418
0.528105
0.806536
0.70719
0.74902
0.827451
0.877124
0.901961
0.896732
0.862745
0.793464
0.715033
0.822222
0.755556
0.824837
0.70719
0.802614
0.789542
0.759477
0.613072
0.763399
0.771242
0.789542
0.499346
0.783007
0.69281
0.779085
0.69281
0.68366
0.670588
0.789542
0.775163
0.730719
0.754248
0.745098
0.844444
0.801307
0.837908
0.709804
0.8
0.80915
0.734641
0.678431
0.805229
0.759477
0.63268
0.785621
0.760784
0.771242
0.865359
0.84183
0.802614
0.732026
0.383007
0.630065
0.691503
0.769935
0.654902
0.664052
0.547712
0.508497
0.550327
0.332026
0.436601
0.729412
0.639216
0.64183
0.55817
0.675817
0.682353
0.766013
0.335948
0.614379
0.537255
0.695425
0.381699
0.627451
0.54902
0.572549
0.704575
0.594771
0.575163
0.585621
0.477124
0.671895
0.675817
0.397386
0.343791
0.734641
0.635294
0.576471
0.628758
0.665359
0.579085
0.448366
0.616993
0.630065
0.401307
0.197386
0.49281
0.334641
0.760784
0.551634
0.733333
0.342484
0.393464
0.733333
0.343791
0.373856
0.475817
0.50719
0.396078
0.660131
0.490196
0.437908
0.481046
0.715033
0.756863
0.798693
0.369935
0.729412
0.453595
0.601307
0.649673
0.792157
0.771242
0.762092
0.764706
0.763399
0.745098
0.696732
0.754248