# vtk DataFile Version 1.0
Unstructured Grid Example
ASCII

DATASET UNSTRUCTURED_GRID
POINTS 2655 float
146 72 0
189 28 0
158 364 0
154 366 0
161 394 0
224 246 0
248 262 0
314 90 0
275 11 0
191 9 0
121 8 0
127 48 0
171 51 0
193 270 0
190 138 0
137 248 0
119 172 0
136 335 0
142 322 0
169 349 0
158 428 0
205 410 0
201 359 0
207 353 0
211 346 0
245 278 0
220 314 0
217 316 0
217 513 0
512 379 0
250 428 0
323 222 0
250 217 0
367 79 0
374 63 0
309 87 0
258 49 0
236 25 0
296 48 0
300 23 0
356 32 0
13 16 0
31 19 0
9 20 0
119 25 0
58 17 0
67 14 0
128 7 0
150 3 0
142 7 0
195 7 0
198 12 0
184 20 0
173 21 0
156 26 0
149 25 0
123 71 0
136 68 0
170 70 0
207 41 0
146 151 0
156 138 0
142 184 0
138 86 0
104 87 0
120 110 0
78 74 0
109 66 0
45 30 0
45 42 0
26 55 0
19 141 0
121 231 0
129 202 0
139 219 0
157 257 0
149 291 0
132 313 0
129 293 0
143 318 0
137 344 0
148 377 0
9 506 0
171 395 0
173 405 0
174 386 0
169 362 0
180 393 0
177 382 0
180 418 0
180 513 0
194 470 0
199 437 0
207 390 0
199 380 0
197 351 0
203 353 0
195 375 0
178 372 0
196 341 0
196 312 0
203 277 0
211 281 0
222 272 0
223 242 0
228 262 0
224 287 0
230 292 0
222 277 0
217 320 0
219 393 0
212 367 0
225 400 0
222 496 0
226 377 0
228 472 0
227 342 0
225 335 0
232 344 0
243 382 0
239 393 0
231 396 0
275 435 0
490 513 0
298 428 0
274 419 0
420 295 0
358 266 0
237 321 0
234 277 0
242 242 0
262 223 0
283 219 0
473 216 0
495 214 0
512 107 0
396 74 0
328 84 0
386 91 0
326 94 0
308 212 0
273 172 0
258 185 0
256 120 0
241 211 0
229 88 0
239 74 0
268 68 0
300 86 0
309 46 0
286 51 0
280 34 0
234 29 0
220 23 0
235 17 0
287 3 0
300 5 0
333 38 0
371 25 0
379 42 0
318 58 0
380 60 0
512 58 0
476 57 0
395 30 0
1 4 0
11 1 0
14 1 0
10 7 0
6 4 0
3 11 0
2 7 0
3 14 0
0 15 0
3 20 0
1 23 0
5 23 0
12 19 0
5 18 0
15 13 0
32 16 0
25 14 0
23 18 0
33 22 0
48 16 0
50 22 0
40 14 0
52 12 0
55 8 0
51 8 0
41 9 0
15 8 0
47 1 0
31 1 0
48 5 0
52 3 0
57 1 0
58 10 0
55 11 0
105 11 0
68 9 0
91 8 0
93 3 0
152 1 0
145 1 0
183 3 0
190 1 0
172 7 0
188 7 0
147 11 0
108 3 0
140 17 0
144 14 0
161 13 0
190 13 0
152 20 0
144 18 0
136 20 0
133 22 0
111 20 0
121 17 0
133 17 0
126 17 0
82 14 0
57 14 0
68 21 0
63 23 0
105 25 0
105 34 0
105 60 0
133 35 0
113 33 0
128 32 0
131 25 0
164 26 0
141 26 0
174 43 0
178 23 0
183 57 0
167 46 0
162 50 0
142 52 0
157 74 0
164 70 0
180 75 0
180 62 0
191 104 0
179 152 0
178 117 0
156 113 0
132 146 0
122 126 0
130 112 0
127 85 0
114 88 0
107 79 0
120 147 0
106 157 0
91 75 0
70 121 0
68 86 0
43 63 0
56 75 0
100 56 0
100 60 0
100 44 0
86 45 0
100 30 0
78 24 0
70 27 0
61 33 0
68 35 0
55 50 0
32 40 0
22 56 0
25 30 0
9 28 0
7 32 0
0 44 0
5 51 0
6 56 0
0 64 0
6 66 0
30 63 0
38 69 0
32 81 0
30 72 0
0 135 0
0 111 0
5 158 0
85 192 0
72 239 0
116 216 0
129 213 0
121 204 0
126 170 0
130 221 0
134 198 0
135 181 0
141 195 0
145 239 0
139 234 0
136 244 0
135 235 0
146 261 0
145 273 0
146 281 0
152 288 0
145 303 0
149 303 0
144 297 0
141 304 0
123 300 0
137 290 0
136 286 0
139 258 0
46 259 0
121 277 0
100 287 0
75 299 0
0 321 0
116 305 0
131 322 0
136 339 0
132 361 0
126 380 0
112 344 0
15 468 0
0 480 0
0 511 0
21 513 0
32 513 0
50 492 0
91 477 0
74 393 0
145 368 0
142 351 0
142 373 0
143 385 0
147 401 0
149 382 0
153 362 0
150 353 0
148 323 0
146 345 0
142 345 0
140 326 0
137 305 0
136 316 0
149 319 0
151 306 0
158 394 0
160 388 0
162 390 0
170 398 0
171 401 0
166 398 0
160 401 0
157 404 0
164 408 0
166 437 0
156 452 0
175 457 0
176 441 0
175 416 0
176 404 0
182 422 0
178 413 0
177 422 0
183 456 0
183 450 0
185 429 0
190 429 0
186 424 0
188 397 0
189 412 0
180 397 0
177 396 0
184 384 0
183 392 0
186 394 0
190 387 0
192 377 0
189 384 0
189 360 0
192 359 0
181 355 0
182 351 0
184 358 0
177 366 0
174 383 0
173 374 0
172 381 0
161 380 0
165 354 0
160 366 0
168 367 0
173 355 0
166 351 0
169 339 0
166 346 0
158 336 0
155 332 0
168 295 0
171 221 0
176 263 0
178 339 0
179 306 0
184 345 0
178 346 0
191 281 0
187 297 0
186 259 0
190 189 0
194 254 0
202 259 0
203 265 0
210 258 0
218 266 0
215 218 0
209 210 0
222 207 0
220 254 0
224 222 0
227 200 0
228 266 0
226 260 0
224 268 0
222 266 0
224 302 0
223 283 0
228 281 0
232 312 0
226 324 0
229 333 0
225 319 0
223 316 0
221 319 0
223 331 0
222 311 0
216 274 0
200 269 0
204 314 0
194 321 0
200 323 0
200 350 0
202 341 0
205 355 0
204 360 0
201 374 0
198 375 0
197 366 0
193 389 0
197 389 0
195 454 0
196 460 0
199 416 0
200 470 0
199 405 0
201 390 0
207 375 0
226 381 0
208 382 0
226 432 0
232 461 0
232 478 0
227 388 0
232 376 0
219 359 0
219 354 0
217 362 0
214 365 0
213 353 0
214 336 0
216 350 0
218 335 0
234 274 0
237 289 0
243 274 0
241 311 0
240 294 0
238 328 0
235 309 0
241 408 0
239 398 0
242 415 0
243 496 0
250 466 0
245 455 0
253 451 0
247 410 0
259 447 0
273 441 0
260 474 0
288 492 0
506 505 0
496 505 0
512 500 0
512 456 0
281 398 0
347 418 0
265 386 0
265 419 0
272 268 0
282 368 0
337 323 0
405 352 0
512 232 0
504 218 0
509 215 0
337 231 0
298 217 0
389 237 0
417 241 0
248 248 0
296 253 0
244 259 0
234 234 0
248 210 0
236 208 0
251 230 0
294 230 0
257 203 0
246 189 0
245 195 0
244 203 0
241 185 0
248 180 0
255 156 0
273 158 0
363 161 0
328 158 0
326 195 0
320 200 0
480 204 0
512 208 0
391 194 0
512 150 0
512 140 0
418 93 0
400 134 0
427 75 0
385 74 0
435 91 0
512 70 0
455 55 0
488 56 0
475 50 0
433 47 0
394 53 0
383 48 0
398 65 0
392 70 0
358 65 0
368 61 0
357 56 0
375 56 0
354 49 0
333 60 0
350 64 0
330 66 0
335 76 0
329 79 0
345 74 0
354 70 0
382 84 0
337 117 0
330 105 0
326 87 0
301 109 0
313 107 0
314 95 0
287 101 0
278 92 0
267 104 0
291 136 0
248 112 0
234 138 0
207 149 0
195 129 0
210 106 0
240 108 0
250 98 0
260 99 0
262 77 0
275 80 0
204 87 0
193 78 0
205 65 0
207 75 0
253 60 0
265 53 0
301 52 0
298 65 0
300 91 0
292 91 0
322 77 0
321 82 0
311 74 0
306 52 0
291 43 0
289 37 0
295 27 0
250 27 0
240 24 0
267 40 0
247 43 0
234 39 0
235 34 0
219 35 0
204 35 0
203 23 0
199 26 0
214 28 0
222 26 0
224 15 0
229 17 0
217 12 0
205 13 0
201 6 0
193 3 0
206 6 0
225 6 0
245 11 0
249 8 0
280 13 0
234 21 0
304 14 0
298 17 0
293 14 0
293 1 0
308 1 0
335 1 0
339 13 0
342 24 0
333 30 0
331 25 0
328 31 0
320 28 0
322 33 0
314 40 0
308 41 0
338 44 0
374 43 0
348 45 0
353 36 0
346 33 0
376 38 0
399 36 0
427 38 0
392 46 0
459 46 0
509 46 0
457 40 0
476 35 0
512 24 0
436 13 0
435 30 0
393 10 0
428 1 0
398 1 0
501 1 0
504 7 0
1 1 0
3 5 0
0 6 0
9 3 0
13 4 0
4 1 0
7 1 0
20 1 0
17 1 0
25 1 0
28 2 0
33 4 0
25 5 0
22 6 0
18 4 0
26 10 0
18 8 0
29 8 0
33 9 0
29 12 0
34 13 0
23 11 0
19 13 0
17 11 0
12 13 0
13 10 0
10 10 0
6 10 0
6 7 0
0 10 0
8 12 0
2 17 0
7 16 0
10 17 0
15 18 0
12 22 0
9 23 0
0 20 0
0 26 0
3 29 0
0 32 0
4 35 0
11 35 0
17 31 0
13 27 0
15 23 0
24 26 0
19 25 0
21 33 0
30 35 0
36 31 0
30 30 0
31 26 0
36 23 0
28 22 0
34 19 0
24 22 0
19 21 0
21 16 0
18 17 0
27 18 0
28 15 0
36 16 0
42 17 0
45 17 0
51 18 0
54 20 0
44 20 0
39 17 0
37 20 0
40 20 0
40 23 0
38 27 0
48 25 0
52 30 0
44 25 0
47 21 0
60 28 0
74 26 0
65 29 0
74 35 0
88 33 0
83 35 0
79 32 0
81 28 0
85 20 0
72 21 0
59 22 0
55 24 0
64 18 0
54 17 0
70 17 0
78 19 0
75 14 0
78 8 0
84 8 0
72 7 0
63 10 0
71 12 0
60 14 0
54 14 0
51 15 0
48 13 0
43 14 0
37 9 0
45 10 0
48 8 0
60 7 0
57 5 0
45 6 0
42 5 0
37 5 0
42 1 0
38 1 0
50 1 0
55 3 0
64 3 0
61 1 0
59 3 0
66 6 0
78 3 0
87 3 0
68 3 0
73 3 0
99 3 0
104 3 0
117 3 0
114 7 0
112 3 0
105 7 0
97 7 0
101 9 0
95 12 0
109 12 0
89 14 0
124 13 0
120 13 0
114 11 0
110 8 0
136 6 0
133 11 0
129 12 0
136 15 0
143 11 0
140 13 0
137 10 0
145 8 0
145 5 0
143 3 0
134 3 0
132 6 0
124 3 0
128 3 0
138 3 0
147 3 0
155 3 0
152 6 0
148 7 0
165 7 0
156 6 0
163 3 0
159 3 0
171 3 0
174 1 0
180 1 0
198 3 0
180 5 0
187 3 0
177 3 0
167 3 0
176 8 0
180 9 0
184 9 0
194 12 0
181 14 0
185 13 0
177 12 0
174 15 0
166 15 0
173 11 0
168 10 0
161 8 0
151 9 0
156 11 0
149 14 0
153 15 0
157 15 0
147 21 0
159 21 0
177 19 0
168 21 0
162 18 0
170 17 0
193 21 0
190 17 0
196 18 0
200 18 0
198 22 0
194 25 0
188 22 0
185 25 0
181 28 0
173 28 0
193 31 0
198 30 0
198 35 0
185 31 0
181 35 0
176 34 0
171 34 0
166 35 0
163 31 0
169 27 0
145 28 0
158 31 0
153 32 0
147 34 0
124 33 0
141 32 0
119 31 0
116 29 0
127 26 0
122 29 0
131 29 0
136 29 0
143 22 0
137 25 0
139 22 0
128 21 0
117 18 0
123 20 0
119 21 0
123 25 0
105 18 0
108 22 0
113 17 0
108 16 0
101 15 0
96 20 0
91 21 0
101 21 0
90 27 0
97 25 0
112 24 0
115 23 0
110 27 0
106 29 0
95 29 0
93 34 0
117 36 0
121 40 0
130 40 0
119 45 0
114 41 0
113 47 0
111 52 0
116 56 0
124 55 0
118 66 0
113 73 0
131 72 0
134 77 0
127 64 0
133 58 0
146 63 0
140 59 0
141 69 0
140 76 0
146 77 0
152 70 0
148 68 0
151 64 0
149 55 0
153 48 0
147 47 0
135 50 0
139 38 0
140 44 0
144 39 0
151 41 0
157 37 0
158 43 0
155 53 0
167 55 0
163 56 0
167 41 0
162 38 0
186 38 0
181 45 0
192 40 0
200 41 0
196 49 0
185 50 0
177 50 0
175 55 0
190 58 0
175 60 0
194 63 0
200 59 0
191 69 0
198 69 0
185 67 0
176 66 0
164 62 0
172 63 0
168 61 0
171 58 0
154 60 0
159 59 0
161 65 0
156 65 0
152 77 0
149 83 0
144 101 0
167 95 0
159 103 0
153 90 0
161 85 0
168 77 0
174 87 0
185 85 0
194 86 0
198 103 0
194 97 0
186 98 0
176 102 0
184 106 0
186 115 0
189 110 0
196 109 0
199 116 0
192 115 0
189 120 0
181 124 0
168 124 0
176 132 0
168 112 0
180 110 0
148 115 0
150 105 0
158 121 0
150 127 0
136 163 0
135 133 0
129 124 0
139 107 0
133 118 0
140 122 0
142 113 0
136 98 0
142 91 0
143 81 0
137 81 0
133 85 0
128 78 0
133 91 0
128 104 0
126 92 0
122 98 0
120 90 0
121 82 0
110 96 0
114 81 0
115 102 0
113 109 0
114 122 0
114 116 0
114 129 0
121 118 0
125 134 0
123 157 0
117 138 0
116 163 0
101 139 0
105 125 0
107 114 0
97 118 0
87 136 0
93 152 0
83 162 0
68 140 0
47 154 0
43 132 0
39 118 0
47 106 0
39 109 0
57 114 0
81 108 0
85 84 0
92 93 0
56 97 0
41 89 0
61 62 0
43 78 0
90 67 0
94 83 0
95 63 0
99 67 0
99 75 0
99 104 0
102 94 0
101 81 0
104 69 0
103 64 0
110 58 0
105 54 0
92 57 0
94 48 0
96 53 0
101 51 0
106 50 0
108 46 0
104 46 0
108 41 0
109 35 0
97 41 0
101 36 0
103 41 0
90 42 0
75 44 0
63 43 0
84 40 0
79 38 0
47 36 0
40 36 0
55 39 0
39 44 0
46 51 0
68 51 0
82 50 0
89 50 0
87 55 0
86 61 0
78 58 0
41 56 0
35 57 0
30 58 0
22 64 0
[...]
CELL_DATA 5156
COLOR_SCALARS ColorSpace 1
0.267974
0.615686
0.169935
0.16732
0.602614
0.27451
0.313725
0.296732
0.196078
0.233987
0.418301
0.580392
0.202614
0.403922
0.465359
0.20915
0.47451
0.470588
0.34902
0.330719
0.415686
0.518954
0.606536
0.287582
0.741176
0.231373
0.611765
0.584314
0.379085
0.284967
0.894118
0.537255
0.252288
0.299346
0.181699
0.300654
0.198693
0.383007
0.294118
0.679739
0.211765
0.287582
0.318954
0.224837
0.247059
0.312418
0.384314
0.526797
0.219608
0.708497
0.243137
0.286275
0.273203
0.384314
0.216993
0.27451
0.24183
0.494118
0.68366
0.722876
0.164706
0.380392
0.847059
0.194771
0.675817
0.513725
0.754248
0.330719
0.257516
0.30719
0.278431
0.35817
0.538562
0.630065
0.189542
0.509804
0.364706
0.36732
0.203922
0.237908
0.296732
0.454902
0.198693
0.138562
0.396078
0.334641
0.478431
0.398693
0.339869
0.233987
0.402614
0.700654
0.398693
0.243137
0.454902
0.420915
0.452288
0.279739
0.201307
0.579085
0.16732
0.414379
0.45098
0.415686
0.577778
0.168627
0.294118
0.339869
0.248366
0.44183
0.481046
0.589542
0.585621
0.457516
0.48366
0.636601
0.160784
0.168627
0.475817
0.213072
0.59085
0.324183
0.51634
0.179085
0.227451
0.569935
0.566013
0.470588
0.210458
0.347712
0.388235
0.420915
0.334641
0.541176
0.560784
0.249673
0.607843
0.270588
0.308497
0.269281
0.223529
0.198693
0.278431
0.227451
0.23268
0.189542
0.233987
0.447059
0.266667
0.488889
0.269281
0.235294
0.6
0.28366
0.687582
0.794771
0.605229
0.295425
0.252288
0.718954
0.249673
0.520261
0.308497
0.262745
0.239216
0.216993
0.264052
0.291503
0.256209
0.253595
0.351634
0.277124
0.729412
0.611765
0.27451
0.240523
0.278431
0.231373
0.243137
0.269281
0.273203
0.284967
0.189542
0.210458
0.220915
0.210458
0.236601
0.235294
0.271895
0.277124
0.210458
0.277124
0.286275
0.226144
0.296732
0.226144
0.291503
0.214379
0.254902
0.620915
0.181699
0.6
0.28366
0.288889
0.252288
0.265359
0.593464
0.239216
0.304575
0.282353
0.265359
0.584314
0.270588
0.265359
0.277124
0.243137
0.278431
0.67451
0.253595
0.286275
0.299346
0.903268
0.260131
0.807843
0.721569
0.360784
0.25098
0.350327
0.291503
0.754248
0.273203
0.87451
0.288889
0.279739
0.287582
0.901961
0.334641
0.585621
0.439216
0.917647
0.831373
0.52549
0.896732
0.479739
0.803922
0.184314
0.633987
0.704575
0.262745
0.356863
0.724183
0.487582
0.746405
0.733333
0.756863
0.688889
0.905882
0.586928
0.890196
0.43268
0.606536
0.775163
0.911111
0.376471
0.737255
0.615686
0.854902
0.820915
0.667974
0.649673
0.745098
0.745098
0.738562
0.271895
0.637908
0.277124
0.627451
0.171242
0.437908
0.665359
0.171242
0.522876
0.343791
0.239216
0.430065
0.23268
0.371242
0.264052
0.248366
0.247059
0.606536
0.215686
0.240523
0.568627
0.288889
0.454902
0.230065
0.543791
0.24183
0.218301
0.669281
0.534641
0.682353
0.529412
0.737255
0.786928
0.818301
0.715033
0.262745
0.665359
0.313725
0.546405
0.738562
0.717647
0.428758
0.25098
0.328105
0.494118
0.772549
0.206536
0.449673
0.776471
0.619608
0.477124
0.303268
0.488889
0.470588
0.465359
0.291503
0.351634
0.330719
0.253595
0.469281
0.206536
0.572549
0.309804
0.338562
0.305882
0.494118
0.207843
0.371242
0.332026
0.282353
0.779085
0.338562
0.499346
0.780392
0.301961
0.305882
0.346405
0.500654
0.334641
0.343791
0.373856
0.396078
0.36732
0.414379
0.422222
0.537255
0.458824
0.48366
0.430065
0.52549
0.347712
0.34902
0.342484
0.779085
0.449673
0.513725
0.49281
0.762092
0.598693
0.295425
0.231373
0.469281
0.691503
0.388235
0.534641
0.269281
0.244444
0.313725
0.466667
0.24183
0.230065
0.460131
0.211765
0.247059
0.686275
0.240523
0.68366
0.210458
0.40915
0.230065
0.298039
0.456209
0.444444
0.444444
0.205229
0.345098
0.188235
0.244444
0.415686
0.218301
0.211765
0.25098
0.419608
0.456209
0.48366
0.350327
0.414379
0.443137
0.383007
0.414379
0.513725
0.368627
0.16732
0.321569
0.521569
0.320261
0.398693
0.24183
0.440523
0.219608
0.237908
0.375163
0.436601
0.406536
0.277124
0.279739
0.415686
0.333333
0.388235
0.303268
0.572549
0.294118
0.530719
0.433987
0.380392
0.2
0.166013
0.31634
0.415686
0.460131
0.45098
0.422222
0.562092
0.426144
0.484967
0.317647
0.470588
0.436601
0.202614
0.539869
0.665359
0.448366
0.481046
0.220915
0.19085
0.171242
0.368627
0.623529
0.177778
0.366013
0.611765
0.611765
0.168627
0.35817
0.586928
0.180392
0.171242
0.171242
0.230065
0.168627
0.171242
0.166013
0.576471
0.171242
0.24183
0.252288
0.583007
0.24183
0.231373
0.226144
0.362092
0.264052
0.141176
0.298039
0.560784
0.521569
0.556863
0.435294
0.640523
0.452288
0.418301
0.411765
0.54902
0.564706
0.563399
0.4
0.503268
0.550327
0.545098
0.166013
0.571242
0.298039
0.168627
0.237908
0.171242
0.424837
0.303268
0.216993
0.215686
0.2
0.419608
0.529412
0.517647
0.532026
0.569935
0.464052
0.537255
0.550327
0.524183
0.363399
0.504575
0.440523
0.342484
0.290196
0.371242
0.437908
0.411765
0.462745
0.410458
0.419608
0.396078
0.555556
0.532026
0.433987
0.424837
0.563399
0.559477
0.471895
0.51634
0.554248
0.538562
0.411765
0.545098
0.328105
0.342484
0.569935
0.318954
0.588235
0.364706
0.630065
0.23268
0.573856
0.380392
0.616993
0.546405
0.273203
0.539869
0.424837
0.262745
0.614379
0.216993
0.427451
0.311111
0.464052
0.175163
0.23268
0.210458
0.223529
0.284967
0.347712
0.254902
0.29281
0.389542
0.254902
0.262745
0.396078
0.205229
0.222222
0.231373
0.278431
0.228758
0.291503
0.23268
0.228758
0.233987
0.278431
0.181699
0.214379
0.231373
0.592157
0.260131
0.301961
0.213072
0.332026
0.593464
0.633987
0.247059
0.546405
0.624837
0.584314
0.649673
0.606536
0.584314
0.637908
0.583007
0.440523
0.635294
0.287582
0.605229
0.538562
0.220915
0.626144
0.487582
0.712418
0.589542
0.637908
0.610458
0.884967
0.589542
0.888889
0.871895
0.878431
0.827451
0.904575
0.888889
0.739869
0.75817
0.461438
0.457516
0.271895
0.363399
0.733333
0.49281
0.296732
0.633987
0.733333
0.54902
0.328105
0.533333
0.315033
0.329412
0.290196
0.581699
0.254902
0.231373
0.346405
0.256209
0.403922
0.235294
0.296732
0.220915
0.360784
0.379085
0.362092
0.226144
0.273203
0.184314
0.265359
0.275817
0.282353
0.824837
0.334641
0.264052
0.284967
0.244444
0.303268
0.305882
0.284967
0.278431
0.322876
0.235294
0.309804
0.275817
0.569935
0.277124
0.315033
0.640523
0.911111
0.620915
0.90719
0.639216
0.913725
0.835294
0.551634
0.762092
0.453595
0.39085
0.24183
0.239216
0.279739
0.60915
0.39085
0.25098
0.435294
0.556863
0.482353
0.752941
0.362092
0.686275
0.288889
0.56732
0.324183
0.439216
0.303268
0.31634
0.264052
0.245752
0.226144
0.305882
0.271895
0.194771
0.219608
0.271895
0.216993
0.261438
0.2
0.20915
0.210458
0.273203
0.231373
0.213072
0.189542
0.257516
0.253595
0.227451
0.193464
0.273203
0.270588
0.254902
0.179085
0.266667
0.228758
0.245752
0.266667
0.196078
0.265359
0.291503
0.254902
0.28366
0.223529
0.308497
0.27451
0.214379
0.337255
0.275817
0.206536
0.25098
0.321569
0.311111
0.270588
0.313725
0.267974
0.23268
0.192157
0.281046
0.265359
0.233987
0.277124
0.288889
0.25098
0.262745
0.247059
0.215686
0.244444
0.239216
0.175163
0.181699
0.24183
0.326797
0.173856
0.198693
0.184314
0.227451
0.183007
0.248366
0.271895
0.201307
0.207843
0.240523
0.168627
0.245752
0.196078
0.206536
0.16732
0.172549
0.214379
0.198693
0.218301
0.179085
0.264052
0.219608
0.224837
0.236601
0.247059
0.294118
0.24183
0.198693
0.237908
0.32549
0.201307
0.164706
0.298039
0.222222
0.460131
0.337255
0.622222
0.202614
0.301961
0.265359
0.737255
0.264052
0.309804
0.281046
0.312418
0.311111
0.303268
0.32549
0.253595
0.288889
0.240523
0.237908
0.469281
0.291503
0.311111
0.273203
0.360784
0.35817
0.258824
0.267974
0.303268
0.267974
0.256209
0.266667
0.31634
0.296732
0.227451
0.253595
0.205229
0.271895
0.227451
0.269281
0.177778
0.202614
0.173856
0.244444
0.226144
0.233987
0.233987
0.25098
0.249673
0.215686
0.256209
0.28366
0.278431
0.239216
0.247059
0.29281
0.218301
0.24183
0.305882
0.201307
0.256209
0.256209
0.284967
0.318954
0.294118
0.345098
0.27451
0.534641
0.288889
0.287582
0.535948
0.312418
0.236601
0.262745
0.233987
0.233987
0.211765
0.309804
0.245752
0.584314
0.299346
0.192157
0.237908
0.275817
0.303268
0.301961
0.686275
0.301961
0.269281
0.639216
0.701961
0.295425
0.675817
0.275817
0.24183
0.503268
0.261438
0.666667
0.203922
0.420915
0.301961
0.301961
0.222222
0.203922
0.311111
0.320261
0.373856
0.224837
0.230065
0.31634
0.431373
0.305882
0.28366
0.29281
0.700654
0.703268
0.622222
0.305882
0.726797
0.822222
0.694118
0.284967
0.300654
0.318954
0.298039
0.805229
0.27451
0.427451
0.911111
0.801307
0.520261
0.460131
0.360784
0.258824
0.25098
0.416993
0.298039
0.308497
0.281046
0.303268
0.436601
0.746405
0.91634
0.877124
0.837908
0.898039
0.917647
0.857516
0.917647
0.917647
0.917647
0.754248
0.826144
0.792157
0.917647
0.732026
0.722876
0.320261
0.866667
0.551634
0.730719
0.818301
0.538562
0.682353
0.713725
0.91634
0.847059
0.90719
0.904575
0.860131
0.415686
0.618301
0.673203
0.772549
0.768627
0.820915
0.779085
0.709804
0.865359
0.586928
0.484967
0.764706
0.80915
0.363399
0.25098
0.28366
0.724183
0.196078
0.733333
0.223529
0.205229
0.717647
0.747712
0.756863
0.773856
0.488889
0.622222
0.256209
0.65098
0.478431
0.300654
0.712418
0.465359
0.39085
0.295425
0.176471
0.460131
0.188235
0.24183
0.732026
0.522876
0.67451
0.773856
0.743791
0.647059
0.64183
0.669281
0.511111
0.509804
0.891503
0.69281
0.605229
0.733333
0.745098
0.864052
0.898039
0.796078
0.837908
0.810458
0.65098
0.645752
0.656209
0.745098
0.75817
0.726797
0.801307
0.733333
0.724183
0.589542
0.665359
0.700654
0.652288
0.776471
0.431373
0.624837
0.664052
0.332026
0.602614
0.678431
0.556863
0.407843
0.534641
0.45098
0.652288
0.649673
0.670588
0.592157
0.701961
0.345098
0.735948
0.756863
0.704575
0.300654
0.44183
0.661438
0.610458
0.669281
0.413072
0.63268
0.518954
0.660131
0.301961
0.27451
0.635294
0.537255
0.538562
0.48366
0.491503
0.662745
0.733333
0.699346
0.779085
0.260131
0.256209
0.300654
0.415686
0.299346
0.568627
0.568627
0.734641
0.396078
0.708497
0.737255
0.300654
0.166013
0.203922
0.364706
0.746405
0.245752
0.322876
0.231373
0.172549
0.189542
0.175163
0.192157
0.192157
0.658824
0.341176
0.618301
0.173856
0.657516
0.333333
0.185621
0.23268
0.47451
0.363399
0.596078
0.237908
0.159477
0.503268
0.351634
0.511111
0.59085
0.503268
0.636601
0.661438
0.54902
0.415686
0.538562
0.538562
0.338562
0.520261
0.488889
0.193464
0.364706
0.291503
0.296732
0.286275
0.193464
0.198693
0.532026
0.186928
0.288889
0.177778
0.605229
0.589542
0.60915
0.261438
0.265359
0.210458
0.201307
0.403922
0.216993
0.279739
0.322876
0.245752
0.258824
0.275817
0.576471
0.452288
0.236601
0.496732
0.572549
0.505882
0.284967
0.556863
0.486275
0.439216
0.449673
0.535948
0.461438
0.448366
0.471895
0.613072
0.329412
0.424837
0.256209
0.245752
0.308497
0.252288
0.465359
0.247059
0.466667
0.473203
0.282353
0.256209
0.266667
0.473203
0.245752
0.243137
0.30719
0.380392
0.247059
0.244444
0.806536
0.347712
0.257516
0.627451
0.354248
0.254902
0.32549
0.730719
0.337255
0.643137
0.635294
0.521569
0.639216
0.247059
0.695425
0.452288
0.830065
0.657516
0.847059
0.430065
0.730719
0.345098
0.627451
0.593464
0.728105
0.48366
0.219608
0.585621
0.498039
0.386928
0.286275
0.24183
0.372549
0.218301
0.296732
0.660131
0.644444
0.328105
0.504575
0.416993
0.354248
0.328105
0.524183
0.287582
0.688889
0.320261
0.606536
0.780392
0.266667
0.643137
0.657516
0.611765
0.633987
0.635294
0.630065
0.626144
0.891503
0.481046
0.52549
0.869281
0.579085
0.87451
0.524183
0.772549
0.631373
0.552941
0.814379
0.616993
0.877124
0.783007
0.879739
0.877124
0.857516
0.478431
0.771242
0.471895
0.627451
0.623529
0.631373
0.478431
0.627451
0.775163
0.630065
0.623529
0.776471
0.648366
0.637908
0.917647
0.39085
0.648366
0.503268
0.785621
0.435294
0.764706
0.490196
0.478431
0.461438
0.644444
0.45098
0.482353
0.433987
0.499346
0.508497
0.501961
0.291503
0.424837
0.288889
0.317647
0.311111
0.50719
0.364706
0.386928
0.313725
0.339869
0.312418
0.405229
0.322876
0.436601
0.341176
0.371242
0.322876
0.379085
0.453595
0.470588
0.413072
0.324183
0.330719
0.260131
0.300654
0.279739
0.278431
0.288889
0.28366
0.282353
0.288889
0.435294
0.362092
0.461438
0.4
0.264052
0.354248
0.403922
0.445752
0.419608
0.449673
0.471895
0.445752
0.354248
0.436601
0.461438
0.444444
0.381699
0.462745
0.321569
0.457516
0.288889
0.43268
0.452288
0.466667
0.481046
0.49281
0.495425
0.501961
0.524183
0.482353
0.488889
0.453595
0.377778
0.464052
0.32549
0.402614
0.298039
0.406536
0.324183
0.326797
0.275817
0.31634
0.257516
0.36732
0.269281
0.28366
0.308497
0.300654
0.320261
0.301961
0.295425
0.309804
0.347712
0.351634
0.420915
0.43268
0.45098
0.329412
0.386928
0.388235
0.372549
0.515033
0.362092
0.44183
0.388235
0.305882
0.34902
0.355556
0.416993
0.362092
0.482353
0.317647
0.491503
0.335948
0.273203
0.34902
0.501961
0.45098
0.403922
0.419608
0.368627
0.396078
0.371242
0.454902
0.456209
0.317647
0.534641
0.539869
0.258824
0.554248
0.320261
0.215686
0.298039
0.265359
0.373856
0.435294
0.341176
0.2
0.230065
0.222222
0.329412
0.320261
0.351634
0.401307
0.354248
0.303268
0.354248
0.394771
0.40915
0.329412
0.402614
0.249673
0.19085
0.271895
0.198693
0.337255
0.223529
0.210458
0.226144
0.210458
0.247059
0.233987
0.369935
0.419608
0.27451
0.303268
0.427451
0.335948
0.411765
0.498039
0.34902
0.457516
0.34902
0.444444
0.39085
0.356863
0.427451
0.435294
0.500654
0.437908
0.500654
0.494118
0.321569
0.454902
0.419608
0.392157
0.51634
0.620915
0.776471
0.64183
0.520261
0.508497
0.783007
0.644444
0.686275
0.363399
0.522876
0.295425
0.247059
0.452288
0.686275
0.473203
0.499346
0.356863
0.252288
0.467974
0.228758
0.461438
0.227451
0.478431
0.25098
0.47451
0.240523
0.215686
0.454902
0.215686
0.452288
0.444444
0.20915
0.201307
0.211765
0.207843
0.447059
0.205229
0.218301
0.210458
0.219608
0.262745
0.210458
0.219608
0.326797
0.201307
0.301961
0.211765
0.256209
0.207843
0.20915
0.258824
0.198693
0.197386
0.205229
0.198693
0.20915
0.206536
0.25098
0.203922
0.236601
0.207843
0.244444
0.206536
0.330719
0.265359
0.384314
0.247059
0.202614
0.203922
0.236601
0.300654
0.377778
0.279739
0.4
0.503268
0.240523
0.457516
0.20915
0.202614
0.203922
0.445752
0.202614
0.445752
0.202614
0.443137
0.254902
0.277124
0.488889
0.222222
0.486275
0.494118
0.447059
0.43268
0.318954
0.321569
0.216993
0.27451
0.207843
0.211765
0.220915
0.457516
0.214379
0.45098
0.686275
0.457516
0.688889
0.45098
0.466667
0.239216
0.216993
0.202614
0.456209
0.466667
0.449673
0.20915
0.456209
0.215686
0.20915
0.252288
0.20915
0.420915
0.207843
0.343791
0.346405
0.27451
0.532026
0.445752
0.29281
0.257516
0.345098
0.23268
0.363399
0.278431
0.440523
0.397386
0.201307
0.290196
0.210458
0.269281
0.273203
0.338562
0.311111
0.499346
0.379085
0.513725
0.518954
0.479739
0.513725
0.45098
0.487582
0.431373
0.469281
0.411765
0.48366
0.343791
0.490196
0.505882
0.386928
0.448366
0.490196
0.413072
0.311111
0.385621
0.537255
0.469281
0.462745
0.435294
0.581699
0.532026
0.532026
0.501961
0.550327
0.521569
0.454902
0.352941
0.453595
0.369935
0.420915
0.511111
0.411765
0.376471
0.547712
0.337255
0.530719
0.522876
0.488889
0.453595
0.572549
0.521569
0.6
0.478431
0.524183
0.496732
0.611765
0.328105
0.486275
0.596078
0.20915
0.546405
0.403922
0.402614
0.452288
0.465359
0.458824
0.392157
0.524183
0.146405
0.194771
0.413072
0.439216
0.326797
0.205229
0.304575
0.470588
0.152941
0.228758
0.504575
0.299346
0.32549
0.407843
0.427451
0.398693
0.47451
0.372549
0.428758
0.443137
0.44183
0.39085
0.465359
0.386928
0.389542
0.436601
0.419608
0.484967
0.445752
0.418301
0.298039
0.522876
0.372549
0.465359
0.392157
0.528105
0.488889
0.244444
0.346405
0.354248
0.233987
0.351634
0.359477
0.321569
0.286275
0.249673
0.25098
0.202614
0.32549
0.205229
0.222222
0.24183
0.312418
0.24183
0.198693
0.210458
0.201307
0.372549
0.373856
0.40915
0.364706
0.203922
0.282353
0.201307
0.248366
0.219608
0.224837
0.214379
0.230065
0.19085
0.141176
0.181699
0.29281
0.14902
0.177778
0.32549
0.154248
0.231373
0.205229
0.147712
0.243137
0.2
0.216993
0.134641
0.201307
0.145098
0.146405
0.141176
0.142484
0.16732
0.154248
0.152941
0.288889
0.163399
0.477124
0.145098
0.175163
0.151634
0.142484
0.159477
0.239216
0.240523
0.173856
0.252288
0.262745
0.224837
0.447059
0.469281
0.431373
0.501961
0.20915
0.341176
0.354248
0.160784
0.257516
0.14902
0.14902
0.175163
0.146405
0.143791
0.179085
0.141176
0.201307
0.392157
0.146405
0.296732
0.146405
0.169935
0.291503
0.379085
0.457516
0.397386
0.491503
0.44183
0.181699
0.147712
0.235294
0.197386
0.352941
0.197386
0.596078
0.533333
0.427451
0.49281
0.528105
0.551634
0.593464
0.563399
0.573856
0.568627
0.577778
0.537255
0.618301
0.572549
0.541176
0.560784
0.402614
0.428758
0.52549
0.419608
0.528105
0.586928
0.555556
0.443137
0.477124
0.505882
0.597386
0.524183
0.505882
0.499346
0.619608
0.560784
0.645752
0.477124
0.603922
0.532026
0.490196
0.296732
0.343791
0.48366
0.265359
0.448366
0.372549
0.405229
0.303268
0.230065
0.543791
0.180392
0.343791
0.498039
0.420915
0.264052
0.216993
0.586928
0.522876
0.569935
0.551634
0.351634
0.593464
0.606536
0.478431
0.501961
0.603922
0.615686
0.596078
0.623529
0.606536
0.603922
0.624837
0.63268
0.614379
0.654902
0.613072
0.63268
0.65098
0.573856
0.294118
0.619608
0.649673
0.636601
0.19085
0.624837
0.347712
0.628758
0.281046
0.192157
0.637908
0.347712
0.469281
0.487582
0.528105
0.31634
0.185621
0.203922
0.449673
0.201307
0.31634
0.166013
0.179085
0.168627
0.181699
0.162092
0.163399
0.179085
0.346405
0.496732
0.495425
0.210458
0.233987
0.48366
0.352941
0.16732
0.213072
0.177778
0.163399
0.359477
0.226144
0.177778
0.164706
0.2
0.171242
0.484967
0.203922
0.210458
0.244444
0.169935
0.230065
0.36732
0.2
0.237908
0.398693
0.56732
0.598693
0.55817
0.45098
0.243137
0.359477
0.239216
0.405229
0.145098
0.146405
0.230065
0.267974
0.237908
0.226144
0.224837
0.222222
0.230065
0.281046
0.230065
0.269281
0.171242
0.194771
0.362092
0.312418
0.172549
0.223529
0.253595
0.594771
0.284967
0.333333
0.461438
0.279739
0.332026
0.253595
0.330719
0.487582
0.305882
0.249673
0.176471
0.177778
0.56732
0.30719
0.376471
0.328105
0.521569
0.500654
0.560784
0.535948
0.569935
0.508497
0.508497
0.456209
0.559477
0.583007
0.559477
0.605229
0.580392
0.605229
0.521569
0.560784
0.537255
0.556863
0.550327
0.559477
0.530719
0.556863
0.539869
0.526797
0.554248
0.563399
0.435294
0.49281
0.563399
0.542484
0.56732
0.50719
0.556863
0.560784
0.571242
0.512418
0.559477
0.545098
0.530719
0.458824
0.576471
0.542484
0.556863
0.552941
0.542484
0.440523
0.568627
0.572549
0.320261
0.569935
0.219608
0.458824
0.321569
0.362092
0.562092
0.581699
0.594771
0.499346
0.301961
0.512418
0.271895
0.152941
0.35817
0.224837
0.207843
0.134641
0.198693
0.135948
0.328105
0.499346
0.373856
0.537255
0.437908
0.379085
0.27451
0.169935
0.248366
0.156863
0.351634
0.311111
0.317647
0.328105
0.282353
0.345098
0.175163
0.214379
0.410458
0.465359
0.264052
0.256209
0.345098
0.247059
0.298039
0.401307
0.351634
0.454902
0.543791
0.505882
0.471895
0.458824
0.427451
0.482353
0.504575
0.491503
0.517647
0.51634
0.529412
0.537255
0.403922
0.508497
0.513725
0.501961
0.526797
0.556863
0.52549
0.47451
0.469281
0.496732
0.528105
0.530719
0.586928
0.572549
0.584314
0.563399
0.482353
0.40915
0.443137
0.397386
0.428758
0.503268
0.547712
0.470588
0.411765
0.375163
0.326797
0.482353
0.430065
0.398693
0.422222
0.329412
0.491503
0.394771
0.494118
0.48366
0.491503
0.460131
0.479739
0.484967
0.475817
0.359477
0.475817
0.487582
0.490196
0.393464
0.413072
0.305882
0.288889
0.342484
0.464052
0.47451
0.479739
0.449673
0.462745
0.462745
0.454902
0.445752
0.461438
0.419608
0.380392
0.372549
0.35817
0.320261
0.347712
0.413072
0.376471
0.375163
0.35817
0.369935
0.503268
0.452288
0.504575
0.424837
0.396078
0.362092
0.52549
0.541176
0.530719
0.537255
0.521569
0.524183
0.529412
0.495425
0.526797
0.537255
0.532026
0.539869
0.554248
0.528105
0.529412
0.538562
0.545098
0.462745
0.511111
0.546405
0.528105
0.552941
0.51634
0.52549
0.501961
0.462745
0.396078
0.533333
0.427451
0.52549
0.534641
0.555556
0.498039
0.43268
0.52549
0.547712
0.551634
0.530719
0.545098
0.416993
0.623529
0.498039
0.538562
0.419608
0.537255
0.423529
0.39085
0.35817
0.449673
0.543791
0.478431
0.466667
0.50719
0.501961
0.517647
0.515033
0.462745
0.538562
0.538562
0.551634
0.551634
0.551634
0.559477
0.550327