# vtk DataFile Version 1.0
Unstructured Grid Example
ASCII

DATASET UNSTRUCTURED_GRID
POINTS 9664 float
86 62 0
52 13 0
18 278 0
81 369 0
471 238 0
152 320 0
103 149 0
370 74 0
452 43 0
15 8 0
90 52 0
142 8 0
109 95 0
150 227 0
20 74 0
14 162 0
55 240 0
136 266 0
8 279 0
181 411 0
180 441 0
170 358 0
196 237 0
199 256 0
225 256 0
209 389 0
484 498 0
242 421 0
264 356 0
392 209 0
456 143 0
315 199 0
289 97 0
317 45 0
263 70 0
360 64 0
410 84 0
39 4 0
34 18 0
51 49 0
80 53 0
106 54 0
53 36 0
83 9 0
125 9 0
180 3 0
198 22 0
169 31 0
135 22 0
124 38 0
111 30 0
97 87 0
152 60 0
176 68 0
199 109 0
189 120 0
182 169 0
170 168 0
41 84 0
63 62 0
65 56 0
9 133 0
10 125 0
18 139 0
23 145 0
125 203 0
130 263 0
152 217 0
135 280 0
133 290 0
105 285 0
23 293 0
31 311 0
114 329 0
6 510 0
131 409 0
148 488 0
124 404 0
138 367 0
155 354 0
155 370 0
153 421 0
187 454 0
195 470 0
166 440 0
188 431 0
175 324 0
170 298 0
165 269 0
155 266 0
158 209 0
155 179 0
160 246 0
193 262 0
214 211 0
229 205 0
240 238 0
244 337 0
276 348 0
244 297 0
208 313 0
211 358 0
211 493 0
208 513 0
266 513 0
245 453 0
245 440 0
275 399 0
328 357 0
288 443 0
480 504 0
493 503 0
507 511 0
480 484 0
501 479 0
472 287 0
431 232 0
428 243 0
366 219 0
333 218 0
442 218 0
457 224 0
415 176 0
414 122 0
488 81 0
397 68 0
394 91 0
324 161 0
366 187 0
287 134 0
275 185 0
237 185 0
200 125 0
214 131 0
279 67 0
322 86 0
300 51 0
284 59 0
280 50 0
262 36 0
202 19 0
293 41 0
299 36 0
324 24 0
313 29 0
335 52 0
312 58 0
447 50 0
421 62 0
341 49 0
470 35 0
14 3 0
43 1 0
59 3 0
49 3 0
44 17 0
36 16 0
24 11 0
0 37 0
13 46 0
1 52 0
28 58 0
37 55 0
44 29 0
41 27 0
69 31 0
67 38 0
66 42 0
84 36 0
93 37 0
99 34 0
70 25 0
102 23 0
84 23 0
74 23 0
60 22 0
69 16 0
94 16 0
98 3 0
115 10 0
122 10 0
119 11 0
132 25 0
126 25 0
146 18 0
149 3 0
162 1 0
168 3 0
183 3 0
205 16 0
189 16 0
181 32 0
162 17 0
157 46 0
157 36 0
169 42 0
201 48 0
180 48 0
166 54 0
156 50 0
140 60 0
152 56 0
149 40 0
136 43 0
125 53 0
125 59 0
136 60 0
134 100 0
144 106 0
138 110 0
167 100 0
156 90 0
160 77 0
158 61 0
174 72 0
183 78 0
191 71 0
184 109 0
183 86 0
172 99 0
170 108 0
159 118 0
195 111 0
208 120 0
198 188 0
162 134 0
160 180 0
152 182 0
132 182 0
137 174 0
131 169 0
130 115 0
131 125 0
129 161 0
130 196 0
129 182 0
109 199 0
104 135 0
93 127 0
108 107 0
120 119 0
127 123 0
88 97 0
115 68 0
121 62 0
73 61 0
58 61 0
65 74 0
63 103 0
27 81 0
27 75 0
39 65 0
11 61 0
26 70 0
10 78 0
20 110 0
13 128 0
5 129 0
19 117 0
37 112 0
40 136 0
26 179 0
23 139 0
7 146 0
28 248 0
42 268 0
17 269 0
59 255 0
109 249 0
105 223 0
68 213 0
110 221 0
110 215 0
144 207 0
140 226 0
133 258 0
130 234 0
123 272 0
122 291 0
140 291 0
151 280 0
149 313 0
145 303 0
128 321 0
121 328 0
115 317 0
97 309 0
114 282 0
58 275 0
41 277 0
48 289 0
7 326 0
30 345 0
90 340 0
115 333 0
107 390 0
111 397 0
90 347 0
22 427 0
34 462 0
23 490 0
26 497 0
114 507 0
48 495 0
53 487 0
105 451 0
141 381 0
146 391 0
148 406 0
150 397 0
155 389 0
152 370 0
153 368 0
149 353 0
146 352 0
139 347 0
135 338 0
129 343 0
144 330 0
151 344 0
155 382 0
160 371 0
163 378 0
176 391 0
174 382 0
173 409 0
163 388 0
163 419 0
162 443 0
157 452 0
174 470 0
170 445 0
173 418 0
175 416 0
183 442 0
180 476 0
195 509 0
203 462 0
200 507 0
196 455 0
196 436 0
201 422 0
194 408 0
182 406 0
187 383 0
186 373 0
195 399 0
209 400 0
197 334 0
201 327 0
199 278 0
177 306 0
197 322 0
176 338 0
192 344 0
173 354 0
165 312 0
157 366 0
159 288 0
159 303 0
164 274 0
172 292 0
168 263 0
162 261 0
159 266 0
164 252 0
161 204 0
165 259 0
181 255 0
202 255 0
190 261 0
197 269 0
189 271 0
204 271 0
210 259 0
205 247 0
204 240 0
225 207 0
228 216 0
219 233 0
236 263 0
231 245 0
235 216 0
236 209 0
241 226 0
244 188 0
251 210 0
254 237 0
244 262 0
243 248 0
239 252 0
232 269 0
250 283 0
253 287 0
238 319 0
236 307 0
226 327 0
224 313 0
220 321 0
221 309 0
223 270 0
212 294 0
213 307 0
211 314 0
212 324 0
212 335 0
222 336 0
230 337 0
230 389 0
233 361 0
222 359 0
210 386 0
215 396 0
216 461 0
221 481 0
227 490 0
228 494 0
227 467 0
221 464 0
237 406 0
240 433 0
247 513 0
251 456 0
248 470 0
248 455 0
247 450 0
255 388 0
249 373 0
235 376 0
240 361 0
236 359 0
240 372 0
253 343 0
259 281 0
267 279 0
273 279 0
278 392 0
272 290 0
266 292 0
257 350 0
265 426 0
269 445 0
264 445 0
271 513 0
296 513 0
289 499 0
290 467 0
308 381 0
362 489 0
325 500 0
463 502 0
371 502 0
495 498 0
451 494 0
398 337 0
342 317 0
321 324 0
359 291 0
327 278 0
416 297 0
479 313 0
508 249 0
512 245 0
501 220 0
492 228 0
475 221 0
496 232 0
485 253 0
398 276 0
348 266 0
257 270 0
290 240 0
325 225 0
409 231 0
424 234 0
285 209 0
281 207 0
274 215 0
257 192 0
259 197 0
261 183 0
270 196 0
300 194 0
289 197 0
300 198 0
308 207 0
383 212 0
472 214 0
322 212 0
341 185 0
502 171 0
472 162 0
407 143 0
474 132 0
416 108 0
479 112 0
512 143 0
512 96 0
512 75 0
507 66 0
428 72 0
418 72 0
482 72 0
454 83 0
382 113 0
398 94 0
384 83 0
351 82 0
373 69 0
367 92 0
380 105 0
354 149 0
365 118 0
382 134 0
392 157 0
378 162 0
372 170 0
362 171 0
345 165 0
296 159 0
284 154 0
268 135 0
271 124 0
273 150 0
278 151 0
254 178 0
250 175 0
240 173 0
246 159 0
249 165 0
250 151 0
266 157 0
287 106 0
268 116 0
268 119 0
244 69 0
211 76 0
268 94 0
284 106 0
302 95 0
289 86 0
318 104 0
298 111 0
334 92 0
336 95 0
322 79 0
319 69 0
348 66 0
344 62 0
319 50 0
317 37 0
286 56 0
292 63 0
298 63 0
281 62 0
241 59 0
220 60 0
217 58 0
225 51 0
254 43 0
285 37 0
268 22 0
222 20 0
211 21 0
234 1 0
224 8 0
243 12 0
258 4 0
286 16 0
275 18 0
280 34 0
332 27 0
331 30 0
296 18 0
337 8 0
349 10 0
357 26 0
404 1 0
392 39 0
405 34 0
371 27 0
363 33 0
362 42 0
378 59 0
364 62 0
388 58 0
389 65 0
384 53 0
387 44 0
463 39 0
470 43 0
408 62 0
512 42 0
512 45 0
485 42 0
470 40 0
504 31 0
490 35 0
488 32 0
426 35 0
425 27 0
479 1 0
480 8 0
483 5 0
9 1 0
7 2 0
11 8 0
17 6 0
23 9 0
12 5 0
18 1 0
26 1 0
32 1 0
38 1 0
39 11 0
41 8 0
37 8 0
36 5 0
18 12 0
35 11 0
39 14 0
30 16 0
31 18 0
26 15 0
17 15 0
16 18 0
15 13 0
11 13 0
8 11 0
7 14 0
6 16 0
0 17 0
6 24 0
11 20 0
13 19 0
12 41 0
14 33 0
3 30 0
0 34 0
0 50 0
4 53 0
1 55 0
8 61 0
6 56 0
18 52 0
16 50 0
23 50 0
20 50 0
23 57 0
25 61 0
37 52 0
37 49 0
35 46 0
39 38 0
33 43 0
19 44 0
23 22 0
25 19 0
25 24 0
29 23 0
45 23 0
56 21 0
72 21 0
67 26 0
56 35 0
52 30 0
50 28 0
54 39 0
48 45 0
42 46 0
54 60 0
69 58 0
61 49 0
59 36 0
81 45 0
75 52 0
81 61 0
87 57 0
90 58 0
96 56 0
83 54 0
91 42 0
88 40 0
86 42 0
95 26 0
85 27 0
95 23 0
97 21 0
96 18 0
85 17 0
87 14 0
69 13 0
72 11 0
78 13 0
65 15 0
54 17 0
48 17 0
42 18 0
43 15 0
46 16 0
47 9 0
58 14 0
58 6 0
56 7 0
52 7 0
47 1 0
48 5 0
53 1 0
56 2 0
61 5 0
68 6 0
60 7 0
58 9 0
84 6 0
81 7 0
96 6 0
92 3 0
103 1 0
112 1 0
127 3 0
124 6 0
110 3 0
109 10 0
103 11 0
108 22 0
106 26 0
100 26 0
126 17 0
120 25 0
113 15 0
115 13 0
129 13 0
139 14 0
138 20 0
151 21 0
149 17 0
158 16 0
154 14 0
155 10 0
143 10 0
140 7 0
148 1 0
130 3 0
152 3 0
155 5 0
159 3 0
176 9 0
174 12 0
183 8 0
193 5 0
178 5 0
187 3 0
194 8 0
195 3 0
212 3 0
204 12 0
209 10 0
197 9 0
196 12 0
198 15 0
208 14 0
212 13 0
207 24 0
213 24 0
204 24 0
195 16 0
192 27 0
189 25 0
190 19 0
166 23 0
163 22 0
173 26 0
162 26 0
169 36 0
166 37 0
168 47 0
175 44 0
179 44 0
176 38 0
175 35 0
182 28 0
195 37 0
204 36 0
207 37 0
193 43 0
187 49 0
185 44 0
199 51 0
203 52 0
207 52 0
210 55 0
206 56 0
197 56 0
191 60 0
189 57 0
189 54 0
190 50 0
160 53 0
176 52 0
163 57 0
185 59 0
152 49 0
150 47 0
141 54 0
143 42 0
143 46 0
153 36 0
158 41 0
156 33 0
142 29 0
158 28 0
134 27 0
140 31 0
136 32 0
133 35 0
121 35 0
129 30 0
108 30 0
101 29 0
106 34 0
98 41 0
106 42 0
104 44 0
111 46 0
113 42 0
114 47 0
131 49 0
121 58 0
109 49 0
99 51 0
133 70 0
137 68 0
141 70 0
139 83 0
142 79 0
133 74 0
132 81 0
121 95 0
120 98 0
126 104 0
135 97 0
138 104 0
129 86 0
127 84 0
147 85 0
151 104 0
146 115 0
151 95 0
156 95 0
161 91 0
162 80 0
148 74 0
146 76 0
143 74 0
157 64 0
151 63 0
158 67 0
163 66 0
166 62 0
167 75 0
164 77 0
172 69 0
170 81 0
176 65 0
168 64 0
184 62 0
200 64 0
205 70 0
211 87 0
208 73 0
178 79 0
177 74 0
191 101 0
209 103 0
212 99 0
200 106 0
209 116 0
198 103 0
191 107 0
187 101 0
185 97 0
189 90 0
183 104 0
181 107 0
165 115 0
167 118 0
163 118 0
161 122 0
157 131 0
169 130 0
173 138 0
163 129 0
168 125 0
183 125 0
194 126 0
199 121 0
190 139 0
198 137 0
179 141 0
173 133 0
197 155 0
203 158 0
209 148 0
201 208 0
204 201 0
197 202 0
188 172 0
181 205 0
169 158 0
186 155 0
158 168 0
168 179 0
156 185 0
167 189 0
155 192 0
152 196 0
143 191 0
134 189 0
141 186 0
151 178 0
151 172 0
149 138 0
143 135 0
155 121 0
135 144 0
135 123 0
135 150 0
138 155 0
131 129 0
127 129 0
134 127 0
118 129 0
120 126 0
121 130 0
117 139 0
123 156 0
122 161 0
131 152 0
132 185 0
131 199 0
134 199 0
126 187 0
120 202 0
111 171 0
116 161 0
108 151 0
92 170 0
108 190 0
104 201 0
106 206 0
76 188 0
62 172 0
50 179 0
63 153 0
64 161 0
71 159 0
77 160 0
78 120 0
73 145 0
62 126 0
62 117 0
65 113 0
74 115 0
88 110 0
96 122 0
109 127 0
107 141 0
115 145 0
110 131 0
113 127 0
110 124 0
106 96 0
98 103 0
94 107 0
95 78 0
95 71 0
107 82 0
108 89 0
104 67 0
105 63 0
109 61 0
97 65 0
97 62 0
95 67 0
99 69 0
89 71 0
87 68 0
89 62 0
47 64 0
50 61 0
52 65 0
74 67 0
53 86 0
52 81 0
87 83 0
92 82 0
74 108 0
90 104 0
74 102 0
72 97 0
44 113 0
42 102 0
24 116 0
32 84 0
28 90 0
35 97 0
44 88 0
33 78 0
46 72 0
37 68 0
29 67 0
18 68 0
22 69 0
20 81 0
15 73 0
17 64 0
17 61 0
0 64 0
0 61 0
11 66 0
0 68 0
4 94 0
4 98 0
6 90 0
16 109 0
8 101 0
6 113 0
0 119 0
0 123 0
0 135 0
0 152 0
0 155 0
6 155 0
3 150 0
0 128 0
16 125 0
39 147 0
44 133 0
20 155 0
38 153 0
16 152 0
9 156 0
14 158 0
19 159 0
24 173 0
41 177 0
24 185 0
17 184 0
12 199 0
11 192 0
5 189 0
5 167 0
10 160 0
4 163 0
5 176 0
0 202 0
0 208 0
7 219 0
53 210 0
58 215 0
36 223 0
21 220 0
12 224 0
0 220 0
0 241 0
0 246 0
0 251 0
13 253 0
72 263 0
47 245 0
5 232 0
103 246 0
84 251 0
102 257 0
103 252 0
103 241 0
114 239 0
112 234 0
111 230 0
97 233 0
72 234 0
82 209 0
90 229 0
95 215 0
108 211 0
119 210 0
[...]
CELL_DATA 18985
COLOR_SCALARS ColorSpace 1
0.413072
0.564706
0.271895
0.564706
0.337255
0.237908
0.284967
0.520261
0.584314
0.759477
0.585621
0.52549
0.762092
0.364706
0.762092
0.279739
0.616993
0.722876
0.576471
0.462745
0.25098
0.214379
0.256209
0.537255
0.296732
0.156863
0.533333
0.296732
0.535948
0.524183
0.588235
0.222222
0.616993
0.628758
0.569935
0.431373
0.811765
0.887582
0.294118
0.218301
0.24183
0.572549
0.222222
0.193464
0.236601
0.568627
0.243137
0.469281
0.764706
0.275817
0.857516
0.262745
0.256209
0.643137
0.295425
0.718954
0.708497
0.699346
0.839216
0.786928
0.156863
0.720261
0.528105
0.658824
0.181699
0.258824
0.177778
0.499346
0.63268
0.721569
0.792157
0.381699
0.197386
0.439216
0.643137
0.542484
0.312418
0.530719
0.545098
0.560784
0.145098
0.334641
0.542484
0.783007
0.205229
0.213072
0.405229
0.398693
0.422222
0.345098
0.550327
0.550327
0.498039
0.384314
0.40915
0.281046
0.226144
0.172549
0.56732
0.568627
0.213072
0.45098
0.240523
0.215686
0.179085
0.624837
0.704575
0.15817
0.230065
0.176471
0.23268
0.67451
0.581699
0.484967
0.571242
0.563399
0.54902
0.547712
0.517647
0.473203
0.503268
0.560784
0.539869
0.448366
0.532026
0.571242
0.626144
0.16732
0.163399
0.597386
0.171242
0.205229
0.339869
0.577778
0.588235
0.589542
0.626144
0.313725
0.534641
0.6
0.539869
0.29281
0.556863
0.575163
0.704575
0.894118
0.605229
0.898039
0.29281
0.645752
0.588235
0.512418
0.568627
0.309804
0.249673
0.264052
0.643137
0.811765
0.645752
0.844444
0.308497
0.915033
0.265359
0.699346
0.332026
0.660131
0.228758
0.220915
0.294118
0.291503
0.177778
0.260131
0.176471
0.351634
0.215686
0.168627
0.227451
0.227451
0.166013
0.181699
0.197386
0.23268
0.192157
0.196078
0.159477
0.188235
0.172549
0.722876
0.207843
0.28366
0.264052
0.738562
0.711111
0.796078
0.810458
0.227451
0.715033
0.321569
0.179085
0.917647
0.91634
0.878431
0.89281
0.917647
0.453595
0.282353
0.613072
0.258824
0.756863
0.898039
0.871895
0.917647
0.818301
0.798693
0.917647
0.917647
0.917647
0.917647
0.917647
0.917647
0.918954
0.917647
0.917647
0.915033
0.777778
0.870588
0.853595
0.861438
0.881046
0.848366
0.687582
0.844444
0.244444
0.849673
0.85098
0.881046
0.848366
0.785621
0.806536
0.826144
0.849673
0.63268
0.704575
0.626144
0.777778
0.766013
0.824837
0.171242
0.843137
0.786928
0.754248
0.216993
0.759477
0.713725
0.163399
0.356863
0.176471
0.180392
0.181699
0.762092
0.350327
0.198693
0.789542
0.173856
0.704575
0.508497
0.611765
0.708497
0.166013
0.495425
0.528105
0.207843
0.375163
0.262745
0.439216
0.366013
0.207843
0.479739
0.211765
0.705882
0.670588
0.240523
0.613072
0.63268
0.695425
0.196078
0.503268
0.766013
0.682353
0.807843
0.643137
0.236601
0.469281
0.882353
0.465359
0.216993
0.76732
0.20915
0.245752
0.520261
0.461438
0.594771
0.373856
0.337255
0.290196
0.284967
0.271895
0.619608
0.324183
0.624837
0.488889
0.309804
0.503268
0.313725
0.384314
0.538562
0.54902
0.546405
0.435294
0.311111
0.322876
0.377778
0.215686
0.551634
0.512418
0.543791
0.496732
0.51634
0.453595
0.529412
0.226144
0.371242
0.233987
0.145098
0.440523
0.233987
0.19085
0.198693
0.245752
0.202614
0.39085
0.194771
0.401307
0.528105
0.383007
0.227451
0.189542
0.203922
0.198693
0.779085
0.20915
0.210458
0.477124
0.205229
0.464052
0.254902
0.445752
0.220915
0.498039
0.505882
0.40915
0.333333
0.2
0.631373
0.688889
0.457516
0.700654
0.584314
0.231373
0.211765
0.458824
0.488889
0.347712
0.406536
0.56732
0.560784
0.150327
0.55817
0.402614
0.564706
0.524183
0.577778
0.622222
0.535948
0.568627
0.454902
0.534641
0.179085
0.210458
0.135948
0.154248
0.168627
0.197386
0.332026
0.147712
0.517647
0.159477
0.134641
0.32549
0.139869
0.500654
0.248366
0.143791
0.637908
0.196078
0.478431
0.171242
0.222222
0.6
0.362092
0.569935
0.330719
0.504575
0.162092
0.179085
0.236601
0.189542
0.568627
0.34902
0.631373
0.511111
0.636601
0.644444
0.627451
0.49281
0.603922
0.627451
0.616993
0.60915
0.332026
0.645752
0.613072
0.166013
0.247059
0.173856
0.179085
0.392157
0.173856
0.235294
0.171242
0.175163
0.173856
0.164706
0.173856
0.257516
0.175163
0.647059
0.180392
0.623529
0.173856
0.181699
0.240523
0.163399
0.15817
0.248366
0.185621
0.615686
0.171242
0.168627
0.610458
0.54902
0.644444
0.504575
0.586928
0.592157
0.579085
0.577778
0.244444
0.177778
0.169935
0.228758
0.184314
0.244444
0.543791
0.550327
0.146405
0.176471
0.19085
0.210458
0.562092
0.513725
0.584314
0.52549
0.56732
0.551634
0.566013
0.559477
0.541176
0.545098
0.528105
0.51634
0.569935
0.575163
0.366013
0.539869
0.543791
0.418301
0.529412
0.560784
0.448366
0.572549
0.555556
0.545098
0.402614
0.564706
0.541176
0.541176
0.542484
0.486275
0.547712
0.462745
0.564706
0.550327
0.562092
0.554248
0.511111
0.545098
0.577778
0.559477
0.580392
0.592157
0.576471
0.572549
0.644444
0.605229
0.635294
0.607843
0.623529
0.477124
0.577778
0.585621
0.239216
0.339869
0.614379
0.635294
0.171242
0.207843
0.64183
0.237908
0.223529
0.616993
0.258824
0.606536
0.637908
0.47451
0.619608
0.616993
0.249673
0.29281
0.270588
0.24183
0.186928
0.252288
0.291503
0.179085
0.192157
0.618301
0.60915
0.270588
0.628758
0.586928
0.65098
0.606536
0.628758
0.626144
0.581699
0.610458
0.529412
0.584314
0.560784
0.583007
0.543791
0.54902
0.708497
0.59085
0.592157
0.601307
0.613072
0.865359
0.690196
0.839216
0.76732
0.593464
0.820915
0.742484
0.671895
0.585621
0.881046
0.593464
0.879739
0.888889
0.881046
0.891503
0.884967
0.895425
0.88366
0.903268
0.894118
0.793464
0.755556
0.296732
0.603922
0.712418
0.616993
0.738562
0.828758
0.712418
0.630065
0.360784
0.636601
0.258824
0.23268
0.606536
0.220915
0.24183
0.249673
0.622222
0.535948
0.464052
0.478431
0.606536
0.624837
0.196078
0.239216
0.198693
0.19085
0.317647
0.269281
0.258824
0.25098
0.258824
0.223529
0.222222
0.279739
0.308497
0.279739
0.575163
0.303268
0.279739
0.252288
0.670588
0.610458
0.837908
0.905882
0.915033
0.626144
0.91634
0.756863
0.890196
0.777778
0.661438
0.240523
0.411765
0.500654
0.499346
0.566013
0.908497
0.908497
0.903268
0.917647
0.266667
0.843137
0.904575
0.901961
0.281046
0.278431
0.287582
0.245752
0.291503
0.294118
0.248366
0.231373
0.253595
0.258824
0.202614
0.264052
0.211765
0.202614
0.220915
0.277124
0.278431
0.281046
0.177778
0.247059
0.198693
0.305882
0.264052
0.214379
0.203922
0.244444
0.201307
0.206536
0.28366
0.318954
0.25098
0.201307
0.262745
0.188235
0.24183
0.291503
0.304575
0.273203
0.253595
0.236601
0.279739
0.211765
0.243137
0.25098
0.249673
0.2
0.24183
0.162092
0.270588
0.207843
0.252288
0.262745
0.236601
0.230065
0.166013
0.163399
0.236601
0.240523
0.243137
0.231373
0.235294
0.320261
0.249673
0.235294
0.258824
0.197386
0.184314
0.236601
0.192157
0.214379
0.282353
0.188235
0.219608
0.206536
0.219608
0.244444
0.243137
0.169935
0.486275
0.202614
0.586928
0.244444
0.711111
0.775163
0.718954
0.286275
0.717647
0.457516
0.236601
0.743791
0.756863
0.721569
0.177778
0.662745
0.60915
0.794771
0.712418
0.701961
0.718954
0.25098
0.334641
0.739869
0.607843
0.301961
0.269281
0.296732
0.281046
0.737255
0.298039
0.773856
0.700654
0.750327
0.309804
0.735948
0.278431
0.665359
0.214379
0.245752
0.266667
0.245752
0.269281
0.172549
0.176471
0.291503
0.176471
0.220915
0.227451
0.20915
0.203922
0.25098
0.185621
0.192157
0.69281
0.226144
0.304575
0.19085
0.583007
0.43268
0.27451
0.64183
0.728105
0.712418
0.320261
0.222222
0.309804
0.248366
0.261438
0.264052
0.248366
0.284967
0.266667
0.392157
0.827451
0.454902
0.444444
0.903268
0.305882
0.252288
0.299346
0.278431
0.275817
0.789542
0.301961
0.254902
0.849673
0.264052
0.917647
0.388235
0.853595
0.261438
0.405229
0.249673
0.303268
0.728105
0.818301
0.715033
0.339869
0.295425
0.72549
0.70719
0.807843
0.726797
0.726797
0.709804
0.785621
0.733333
0.718954
0.745098
0.775163
0.334641
0.797386
0.72549
0.833987
0.865359
0.881046
0.705882
0.708497
0.756863
0.684967
0.730719
0.712418
0.295425
0.342484
0.366013
0.50719
0.296732
0.402614
0.913725
0.912418
0.917647
0.347712
0.869281
0.875817
0.917647
0.755556
0.60915
0.915033
0.91634
0.917647
0.852288
0.917647
0.917647
0.917647
0.917647
0.917647
0.91634
0.898039
0.917647
0.835294
0.849673
0.747712
0.788235
0.837908
0.853595
0.794771
0.820915
0.853595
0.905882
0.908497
0.901961
0.917647
0.917647
0.875817
0.813072
0.90719
0.887582
0.90719
0.896732
0.905882
0.888889
0.905882
0.881046
0.900654
0.839216
0.882353
0.798693
0.828758
0.45098
0.356863
0.763399
0.822222
0.771242
0.738562
0.837908
0.848366
0.867974
0.866667
0.764706
0.745098
0.742484
0.764706
0.703268
0.713725
0.68366
0.44183
0.728105
0.411765
0.186928
0.614379
0.759477
0.766013
0.550327
0.75817
0.572549
0.760784
0.775163
0.691503
0.769935
0.541176
0.836601
0.603922
0.904575
0.894118
0.785621
0.826144
0.8
0.611765
0.712418
0.858824
0.742484
0.848366
0.820915
0.743791
0.786928
0.85098
0.76732
0.786928
0.649673
0.811765
0.853595
0.870588
0.801307
0.88366
0.781699
0.737255
0.732026
0.712418
0.679739
0.79085
0.836601
0.742484
0.818301
0.703268
0.783007
0.79085
0.762092
0.742484
0.754248
0.526797
0.282353
0.511111
0.628758
0.779085
0.777778
0.603922
0.810458
0.732026
0.792157
0.784314
0.789542
0.803922
0.796078
0.848366
0.803922
0.8
0.781699
0.839216
0.793464
0.835294
0.772549
0.792157
0.750327
0.781699
0.74902
0.764706
0.189542
0.768627
0.709804
0.19085
0.568627
0.734641
0.726797
0.741176
0.626144
0.206536
0.20915
0.271895
0.201307
0.171242
0.708497
0.162092
0.196078
0.20915
0.220915
0.16732
0.20915
0.745098
0.739869
0.424837
0.227451
0.192157
0.568627
0.227451
0.690196
0.563399
0.588235
0.19085
0.730719
0.176471
0.721569
0.718954
0.568627
0.766013
0.183007
0.160784
0.261438
0.64183
0.726797
0.766013
0.660131
0.35817
0.580392
0.70719
0.322876
0.543791
0.624837
0.346405
0.423529
0.389542
0.573856
0.665359
0.537255
0.173856
0.392157
0.350327
0.15817
0.243137
0.163399
0.154248
0.176471
0.166013
0.160784
0.171242
0.534641
0.677124
0.652288
0.614379
0.528105
0.598693
0.386928
0.422222
0.181699
0.585621
0.196078
0.354248
0.633987
0.477124
0.469281
0.467974
0.563399
0.624837
0.613072
0.737255
0.239216
0.254902
0.375163
0.24183
0.769935
0.25098
0.223529
0.644444
0.657516
0.202614
0.63268
0.296732
0.711111
0.724183
0.682353
0.631373
0.635294
0.717647
0.711111
0.746405
0.660131
0.722876
0.643137
0.321569
0.687582
0.44183
0.781699
0.733333
0.662745
0.532026
0.779085
0.419608
0.380392
0.665359
0.715033
0.597386
0.734641
0.751634
0.811765
0.603922
0.673203
0.739869
0.601307
0.355556
0.322876
0.593464
0.823529
0.470588
0.71634
0.745098
0.773856
0.792157
0.552941
0.585621
0.722876
0.569935
0.504575
0.734641
0.837908
0.743791
0.583007
0.63268
0.818301
0.751634
0.75817
0.797386
0.771242
0.806536
0.739869
0.428758
0.783007
0.440523
0.771242
0.773856
0.284967
0.34902
0.430065
0.48366
0.781699
0.491503
0.471895
0.477124
0.760784
0.503268
0.636601
0.513725
0.286275
0.635294
0.509804
0.488889
0.354248
0.494118
0.508497
0.351634
0.447059
0.364706
0.518954
0.376471
0.35817
0.303268
0.494118
0.318954
0.337255
0.320261
0.513725
0.368627
0.210458
0.388235
0.467974
0.305882
0.286275
0.317647
0.373856
0.291503
0.312418
0.372549
0.288889
0.332026
0.623529
0.356863
0.475817
0.317647
0.210458
0.275817
0.294118
0.346405
0.457516
0.354248
0.440523
0.471895
0.48366
0.445752
0.475817
0.330719
0.556863
0.308497
0.524183
0.512418
0.50719
0.473203
0.490196
0.486275
0.494118
0.405229
0.416993
0.431373
0.36732
0.462745
0.479739
0.334641
0.530719
0.460131
0.568627
0.452288
0.505882
0.347712
0.498039
0.481046
0.508497
0.487582
0.491503
0.470588
0.311111
0.379085
0.501961
0.328105
0.475817
0.28366
0.287582
0.260131
0.44183
0.328105
0.318954
0.356863
0.518954
0.385621
0.355556
0.454902
0.210458
0.383007
0.512418
0.526797
0.530719
0.496732
0.343791
0.484967
0.296732
0.494118
0.515033
0.569935
0.508497
0.393464
0.484967
0.512418
0.56732
0.543791
0.563399
0.508497
0.533333
0.509804
0.533333
0.515033
0.260131
0.532026
0.575163
0.542484
0.579085
0.469281
0.583007
0.566013
0.298039
0.364706
0.143791
0.542484
0.552941
0.311111
0.240523
0.329412
0.253595
0.454902
0.371242
0.222222
0.194771
0.496732
0.202614
0.206536
0.206536
0.192157
0.216993
0.185621
0.19085
0.203922
0.2
0.222222
0.240523
0.440523
0.20915
0.224837
0.202614
0.237908
0.203922
0.303268
0.347712
0.338562
0.416993
0.377778
0.40915
0.40915
0.427451
0.35817
0.460131
0.40915
0.418301
0.477124
0.529412
0.39085
0.690196
0.545098
0.547712
0.452288
0.526797
0.494118
0.703268
0.524183
0.504575
0.481046
0.691503
0.477124
0.458824
0.440523
0.299346
0.247059
0.471895
0.248366
0.511111
0.288889
0.40915
0.230065
0.231373
0.239216
0.244444
0.230065
0.206536
0.458824
0.235294
0.453595
0.550327
0.205229
0.445752
0.24183
0.215686
0.206536
0.207843
0.206536
0.20915
0.205229
0.206536
0.45098
0.304575
0.207843
0.249673
0.28366
0.219608
0.201307
0.427451
0.201307
0.346405
0.223529
0.406536
0.196078
0.189542
0.192157
0.288889
0.203922
0.428758
0.206536
0.376471
0.333333
0.445752
0.521569
0.50719
0.481046
0.454902
0.467974
0.505882
0.491503
0.371242
0.224837
0.467974
0.478431
0.226144
0.372549
0.449673
0.447059
0.213072
0.686275
0.471895
0.68366
0.222222
0.224837
0.215686
0.504575
0.218301
0.477124
0.454902
0.216993
0.210458
0.454902
0.248366
0.211765
0.206536
0.220915
0.449673
0.237908
0.270588
0.460131
0.449673
0.24183
0.688889
0.343791
0.588235
0.35817
0.247059
0.509804
0.230065
0.428758
0.328105
0.284967
0.569935
0.466667
0.457516
0.309804
0.244444
0.579085
0.545098
0.518954
0.376471
0.505882
0.619608
0.505882
0.573856
0.410458
0.51634
0.388235
0.413072
0.522876
0.439216
0.475817
0.431373
0.490196
0.379085
0.397386
0.305882
0.377778
0.482353
0.601307
0.457516
0.554248
0.169935
0.419608
0.15817
0.592157
0.556863
0.534641
0.6
0.572549
0.488889
0.494118
0.60915
0.423529
0.475817
0.603922
0.359477
0.488889
0.427451
0.614379
0.465359
0.522876
0.532026
0.564706
0.556863
0.564706
0.571242
0.56732
0.589542
0.577778
0.521569
0.610458
0.664052
0.584314
0.618301
0.611765
0.597386
0.603922
0.572549
0.576471
0.428758
0.560784
0.500654
0.52549
0.535948
0.546405
0.559477
0.155556
0.288889
0.40915
0.499346
0.606536
0.303268
0.420915
0.505882
0.143791
0.14902
0.176471
0.156863
0.150327
0.142484
0.154248
0.163399
0.150327
0.145098
0.51634
0.410458
0.529412
0.216993
0.418301
0.537255
0.430065
0.456209
0.413072
0.478431
0.422222
0.163399
0.465359
0.462745
0.490196
0.452288
0.398693
0.342484
0.313725
0.137255
0.304575
0.460131
0.198693
0.235294
0.202614
0.216993
0.194771
0.184314
0.35817
0.273203
0.334641
0.180392
0.380392
0.317647
0.155556
0.380392
0.162092
0.231373
0.291503
0.163399
0.141176
0.181699
0.134641
0.139869
0.299346
0.420915
0.445752
0.45098
0.222222
0.154248
0.198693
0.198693
0.585621
0.23268
0.479739
0.245752
0.444444
0.596078
0.151634
0.164706
0.249673
0.281046
0.20915
0.222222
0.24183
0.443137
0.248366
0.235294
0.237908
0.618301
0.254902
0.228758
0.244444
0.228758
0.237908
0.139869
0.48366
0.606536
0.379085
0.611765
0.214379
0.613072
0.614379
0.63268
0.616993
0.610458
0.593464
0.596078
0.592157
0.580392
0.266667
0.588235
0.509804
0.551634
0.479739
0.341176
0.198693
0.359477
0.186928
0.258824
0.585621
0.547712
0.588235
0.535948
0.359477
0.596078
0.624837
0.623529
0.597386
0.586928
0.607843
0.56732
0.598693
0.622222
0.532026
0.44183
0.335948
0.607843
0.581699
0.456209
0.615686
0.448366
0.426144
0.528105
0.660131
0.380392
0.636601
0.630065
0.631373
0.592157
0.618301
0.606536
0.56732
0.59085
0.197386
0.198693
0.505882
0.607843
0.436601
0.64183
0.186928
0.19085
0.269281
0.583007
0.65098
0.624837
0.636601
0.495425
0.584314
0.647059
0.635294
0.627451
0.528105
0.530719
0.543791
0.228758
0.369935
0.244444
0.171242
0.23268
0.179085
0.183007
0.164706
0.186928
0.162092
0.159477
0.168627
0.164706
0.163399
0.175163
0.163399
0.171242
0.171242
0.16732
0.162092
0.166013
0.177778
0.176471
0.184314
0.181699
0.172549
0.155556
0.172549
0.176471
0.175163
0.168627
0.154248
0.15817
0.16732
0.172549
0.172549
0.172549
0.181699
0.176471
0.196078
0.2
0.166013
0.197386
0.186928
0.164706
0.160784
0.172549
0.203922
0.168627
0.164706
0.163399
0.171242
0.176471
0.175163
0.185621
0.168627
0.171242
0.173856
0.159477
0.166013
0.160784
0.166013
0.163399
0.164706
0.355556
0.183007
0.445752
0.466667
0.610458
0.184314
0.539869
0.175163
0.179085
0.169935
0.176471
0.169935
0.159477
0.16732
0.162092
0.354248
0.176471
0.175163
0.16732
0.179085
0.166013
0.171242
0.189542
0.162092
0.179085
0.610458
0.175163
0.179085
0.179085
0.176471
0.171242
0.188235
0.60915
0.184314
0.569935
0.175163
0.588235
0.198693
0.184314
0.414379
0.192157
0.56732
0.364706
0.193464
0.294118
0.614379
0.231373
0.652288
0.619608
0.433987
0.633987
0.633987
0.643137
0.605229
0.611765
0.613072
0.576471
0.597386
0.576471
0.598693
0.59085
0.563399
0.579085
0.626144
0.598693
0.607843
0.6
0.630065
0.622222
0.579085
0.56732
0.583007
0.512418
0.55817
0.530719
0.462745
0.576471
0.581699
0.588235
0.573856
0.589542
0.563399
0.585621
0.554248
0.554248
0.546405
0.584314
0.556863
0.564706
0.45098
0.456209
0.547712
0.550327
0.564706
0.555556
0.555556
0.551634
0.569935
0.189542
0.560784
0.589542
0.619608
0.597386
0.439216
0.192157
0.583007
0.534641
0.301961
0.363399
0.588235
0.359477
0.586928
0.526797
0.611765
0.542484
0.543791
0.586928
0.461438
0.29281
0.583007
0.210458
0.143791
0.586928
0.23268
0.541176
0.193464
0.138562
0.239216
0.134641
0.270588
0.230065
0.513725
0.366013
0.577778
0.415686
0.56732
0.433987
0.498039
0.269281
0.581699
0.603922
0.573856
0.603922
0.482353
0.592157
0.560784
0.563399
0.555556
0.562092
0.559477
0.564706
0.579085
0.579085
0.500654
0.573856
0.555556
0.55817
0.583007
0.589542
0.584314
0.568627
0.583007
0.545098
0.571242
0.546405
0.589542
0.495425
0.571242
0.569935
0.542484
0.545098
0.445752
0.547712
0.552941
0.532026
0.538562
0.56732
0.554248
0.564706
0.499346
0.556863
0.577778
0.556863
0.554248
0.542484
0.542484
0.54902
0.542484
0.563399
0.554248
0.393464
0.521569
0.457516
0.522876
0.541176
0.528105
0.551634
0.528105
0.513725
0.529412
0.313725
0.538562
0.338562
0.420915
0.499346
0.522876
0.511111
0.545098
0.529412
0.54902
0.559477
0.542484
0.575163
0.513725
0.554248
0.518954
0.573856
0.528105
0.538562
0.55817
0.530719
0.542484
0.518954
0.491503
0.543791
0.537255
0.518954
0.494118
0.555556
0.545098
0.547712
0.560784
0.551634
0.573856
0.509804
0.369935
0.559477
0.471895
0.547712
0.555556
0.530719
0.563399
0.546405
0.56732
0.550327
0.556863
0.581699
0.542484
0.56732
0.55817
0.569935
0.556863
0.539869
0.564706
0.571242
0.569935
0.521569
0.552941
0.535948
0.559477
0.541176
0.546405
0.520261
0.546405
0.579085
0.577778
0.577778
0.573856
0.589542
0.585621
0.589542
0.571242
0.575163
0.560784
0.577778
0.564706
0.563399
0.555556
0.530719
0.559477
0.601307
0.623529
0.594771
0.586928
0.566013
0.580392
0.627451
0.622222
0.59085
0.562092
0.619608
0.614379
0.633987
0.63268
0.622222
0.611765
0.615686
0.580392
0.633987
0.616993
0.633987
0.613072
0.606536
0.614379
0.602614
0.588235
0.606536
0.603922
0.592157
0.6
0.615686
0.611765
0.619608
0.622222
0.640523
0.631373
0.606536
0.52549
0.631373
0.586928
0.633987
0.197386
0.618301
0.19085
0.611765
0.636601
0.64183
0.603922
0.249673
0.258824
0.230065
0.240523
0.16732
0.188235
0.215686
0.159477
0.233987
0.226144
0.230065
0.393464
0.521569
0.635294
0.245752
0.196078
0.252288
0.257516
0.253595
0.228758
0.295425
0.210458
0.249673
0.249673
0.186928
0.267974
0.275817
0.239216
0.267974
0.192157
0.354248
0.281046
0.653595
0.290196
0.645752
0.467974
0.639216
0.626144
0.60915
0.664052
0.65098
0.65098
0.328105
0.439216
0.39085
0.584314
0.233987
0.665359
0.222222
0.303268
0.271895
0.207843
0.305882
0.645752
0.245752
0.278431
0.233987
0.266667
0.248366
0.287582
0.264052
0.235294
0.269281
0.223529
0.261438
0.243137
0.253595
0.244444
0.216993
0.261438
0.203922
0.188235
0.192157
0.260131
0.179085
0.239216
0.287582
0.223529
0.304575
0.265359
0.270588
0.198693
0.286275
0.282353
0.535948
0.256209
0.279739
0.184314
0.311111
0.233987
0.256209
0.244444
0.577778
0.673203
0.379085
0.201307
0.328105
0.20915
0.633987
0.236601
0.643137
0.258824
0.637908
0.662745
0.647059
0.333333
0.626144
0.658824
0.652288
0.281046
0.566013
0.65098
0.467974
0.623529
0.657516
0.64183
0.563399
0.545098
0.633987
0.624837
0.644444
0.563399
0.64183
0.631373
0.64183
0.644444
0.623529
0.626144
0.633987