# vtk DataFile Version 1.0
Unstructured Grid Example
ASCII

DATASET UNSTRUCTURED_GRID
POINTS 9372 float
211 479 0
212 479 0
213 479 0
214 479 0
210 478 0
211 478 0
214 478 0
230 478 0
231 478 0
232 478 0
206 477 0
207 477 0
208 477 0
209 477 0
210 477 0
214 477 0
215 477 0
216 477 0
217 477 0
230 477 0
231 477 0
232 477 0
233 477 0
206 476 0
207 476 0
208 476 0
214 476 0
215 476 0
216 476 0
217 476 0
218 476 0
219 476 0
220 476 0
221 476 0
231 476 0
232 476 0
233 476 0
202 475 0
203 475 0
204 475 0
205 475 0
206 475 0
220 475 0
221 475 0
223 475 0
224 475 0
239 475 0
240 475 0
201 474 0
202 474 0
204 474 0
205 474 0
206 474 0
221 474 0
222 474 0
223 474 0
224 474 0
225 474 0
239 474 0
240 474 0
241 474 0
201 473 0
225 473 0
226 473 0
234 473 0
235 473 0
238 473 0
239 473 0
241 473 0
242 473 0
200 472 0
201 472 0
226 472 0
227 472 0
228 472 0
231 472 0
232 472 0
233 472 0
234 472 0
235 472 0
237 472 0
238 472 0
242 472 0
243 472 0
198 471 0
199 471 0
200 471 0
201 471 0
228 471 0
229 471 0
230 471 0
231 471 0
235 471 0
237 471 0
243 471 0
244 471 0
194 470 0
195 470 0
196 470 0
197 470 0
198 470 0
199 470 0
200 470 0
235 470 0
236 470 0
237 470 0
244 470 0
245 470 0
194 469 0
195 469 0
196 469 0
197 469 0
198 469 0
199 469 0
244 469 0
245 469 0
193 468 0
194 468 0
195 468 0
196 468 0
197 468 0
198 468 0
245 468 0
246 468 0
247 468 0
248 468 0
193 467 0
194 467 0
245 467 0
246 467 0
247 467 0
248 467 0
249 467 0
250 467 0
190 466 0
191 466 0
192 466 0
193 466 0
246 466 0
247 466 0
248 466 0
250 466 0
190 465 0
191 465 0
246 465 0
247 465 0
248 465 0
250 465 0
190 464 0
191 464 0
247 464 0
248 464 0
250 464 0
251 464 0
189 463 0
190 463 0
247 463 0
248 463 0
251 463 0
189 462 0
190 462 0
251 462 0
252 462 0
189 461 0
251 461 0
252 461 0
188 460 0
189 460 0
252 460 0
187 459 0
188 459 0
189 459 0
190 459 0
252 459 0
253 459 0
187 458 0
188 458 0
189 458 0
190 458 0
249 458 0
250 458 0
251 458 0
252 458 0
253 458 0
187 457 0
188 457 0
189 457 0
190 457 0
249 457 0
250 457 0
251 457 0
252 457 0
253 457 0
187 456 0
188 456 0
189 456 0
190 456 0
249 456 0
250 456 0
251 456 0
252 456 0
253 456 0
187 455 0
188 455 0
189 455 0
253 455 0
186 454 0
187 454 0
253 454 0
186 453 0
253 453 0
254 453 0
259 453 0
260 453 0
184 452 0
185 452 0
186 452 0
188 452 0
189 452 0
253 452 0
254 452 0
258 452 0
259 452 0
260 452 0
183 451 0
184 451 0
185 451 0
186 451 0
188 451 0
189 451 0
253 451 0
254 451 0
258 451 0
260 451 0
183 450 0
188 450 0
189 450 0
253 450 0
254 450 0
255 450 0
256 450 0
257 450 0
258 450 0
259 450 0
260 450 0
183 449 0
188 449 0
189 449 0
259 449 0
183 448 0
258 448 0
259 448 0
183 447 0
258 447 0
259 447 0
183 446 0
258 446 0
259 446 0
260 446 0
261 446 0
262 446 0
263 446 0
183 445 0
258 445 0
259 445 0
260 445 0
261 445 0
262 445 0
263 445 0
264 445 0
183 444 0
261 444 0
262 444 0
263 444 0
264 444 0
265 444 0
183 443 0
261 443 0
262 443 0
263 443 0
264 443 0
265 443 0
266 443 0
183 442 0
261 442 0
262 442 0
263 442 0
264 442 0
265 442 0
266 442 0
183 441 0
262 441 0
263 441 0
183 440 0
189 440 0
190 440 0
262 440 0
263 440 0
183 439 0
188 439 0
189 439 0
190 439 0
263 439 0
264 439 0
183 438 0
184 438 0
188 438 0
189 438 0
190 438 0
263 438 0
264 438 0
265 438 0
266 438 0
267 438 0
268 438 0
184 437 0
185 437 0
189 437 0
190 437 0
268 437 0
185 436 0
265 436 0
266 436 0
267 436 0
268 436 0
185 435 0
186 435 0
187 435 0
188 435 0
265 435 0
186 434 0
187 434 0
188 434 0
262 434 0
263 434 0
265 434 0
266 434 0
269 434 0
270 434 0
271 434 0
188 433 0
262 433 0
263 433 0
264 433 0
265 433 0
266 433 0
269 433 0
270 433 0
271 433 0
187 432 0
188 432 0
262 432 0
263 432 0
264 432 0
265 432 0
269 432 0
270 432 0
271 432 0
187 431 0
188 431 0
262 431 0
263 431 0
264 431 0
265 431 0
187 430 0
262 430 0
263 430 0
185 429 0
186 429 0
187 429 0
262 429 0
263 429 0
184 428 0
185 428 0
186 428 0
187 428 0
262 428 0
263 428 0
184 427 0
185 427 0
186 427 0
187 427 0
262 427 0
263 427 0
184 426 0
185 426 0
186 426 0
187 426 0
262 426 0
263 426 0
264 426 0
265 426 0
182 425 0
183 425 0
184 425 0
185 425 0
264 425 0
265 425 0
182 424 0
183 424 0
185 424 0
186 424 0
264 424 0
265 424 0
182 423 0
183 423 0
184 423 0
185 423 0
186 423 0
264 423 0
265 423 0
181 422 0
182 422 0
183 422 0
264 422 0
265 422 0
181 421 0
182 421 0
183 421 0
264 421 0
265 421 0
178 420 0
179 420 0
180 420 0
181 420 0
182 420 0
183 420 0
265 420 0
178 419 0
179 419 0
180 419 0
181 419 0
182 419 0
188 419 0
189 419 0
265 419 0
177 418 0
178 418 0
180 418 0
181 418 0
182 418 0
188 418 0
189 418 0
259 418 0
260 418 0
261 418 0
262 418 0
263 418 0
264 418 0
265 418 0
177 417 0
259 417 0
260 417 0
261 417 0
262 417 0
263 417 0
264 417 0
265 417 0
175 416 0
176 416 0
177 416 0
260 416 0
261 416 0
262 416 0
263 416 0
264 416 0
265 416 0
174 415 0
175 415 0
177 415 0
178 415 0
260 415 0
261 415 0
262 415 0
263 415 0
173 414 0
174 414 0
176 414 0
177 414 0
178 414 0
259 414 0
260 414 0
261 414 0
262 414 0
263 414 0
264 414 0
173 413 0
176 413 0
177 413 0
178 413 0
258 413 0
259 413 0
260 413 0
263 413 0
264 413 0
171 412 0
172 412 0
173 412 0
253 412 0
254 412 0
255 412 0
256 412 0
257 412 0
258 412 0
171 411 0
253 411 0
254 411 0
255 411 0
256 411 0
257 411 0
263 411 0
264 411 0
170 410 0
171 410 0
252 410 0
253 410 0
254 410 0
255 410 0
256 410 0
257 410 0
263 410 0
264 410 0
166 409 0
167 409 0
168 409 0
169 409 0
170 409 0
241 409 0
242 409 0
243 409 0
244 409 0
249 409 0
250 409 0
251 409 0
252 409 0
254 409 0
255 409 0
256 409 0
257 409 0
161 408 0
162 408 0
163 408 0
164 408 0
165 408 0
166 408 0
241 408 0
242 408 0
243 408 0
244 408 0
249 408 0
250 408 0
251 408 0
252 408 0
253 408 0
254 408 0
255 408 0
161 407 0
162 407 0
179 407 0
180 407 0
248 407 0
249 407 0
250 407 0
253 407 0
254 407 0
255 407 0
160 406 0
161 406 0
179 406 0
180 406 0
248 406 0
249 406 0
250 406 0
252 406 0
253 406 0
157 405 0
158 405 0
159 405 0
160 405 0
241 405 0
242 405 0
243 405 0
248 405 0
249 405 0
250 405 0
252 405 0
253 405 0
254 405 0
255 405 0
157 404 0
240 404 0
241 404 0
242 404 0
243 404 0
244 404 0
250 404 0
251 404 0
252 404 0
253 404 0
254 404 0
255 404 0
157 403 0
239 403 0
240 403 0
241 403 0
242 403 0
243 403 0
244 403 0
250 403 0
251 403 0
252 403 0
253 403 0
254 403 0
156 402 0
157 402 0
239 402 0
240 402 0
241 402 0
242 402 0
243 402 0
247 402 0
248 402 0
253 402 0
254 402 0
255 402 0
156 401 0
159 401 0
160 401 0
165 401 0
166 401 0
167 401 0
168 401 0
169 401 0
170 401 0
171 401 0
172 401 0
173 401 0
174 401 0
175 401 0
176 401 0
239 401 0
240 401 0
241 401 0
243 401 0
244 401 0
247 401 0
248 401 0
249 401 0
250 401 0
251 401 0
252 401 0
253 401 0
254 401 0
255 401 0
156 400 0
157 400 0
158 400 0
159 400 0
160 400 0
161 400 0
162 400 0
163 400 0
164 400 0
165 400 0
166 400 0
175 400 0
176 400 0
177 400 0
178 400 0
179 400 0
180 400 0
181 400 0
182 400 0
183 400 0
239 400 0
240 400 0
241 400 0
244 400 0
245 400 0
248 400 0
249 400 0
156 399 0
157 399 0
173 399 0
174 399 0
175 399 0
176 399 0
177 399 0
178 399 0
179 399 0
182 399 0
183 399 0
184 399 0
185 399 0
186 399 0
239 399 0
240 399 0
241 399 0
245 399 0
247 399 0
248 399 0
155 398 0
156 398 0
158 398 0
159 398 0
160 398 0
161 398 0
162 398 0
163 398 0
164 398 0
165 398 0
166 398 0
167 398 0
168 398 0
169 398 0
170 398 0
171 398 0
172 398 0
173 398 0
179 398 0
180 398 0
181 398 0
182 398 0
183 398 0
184 398 0
186 398 0
187 398 0
188 398 0
198 398 0
199 398 0
200 398 0
201 398 0
239 398 0
240 398 0
241 398 0
245 398 0
246 398 0
247 398 0
155 397 0
156 397 0
157 397 0
158 397 0
184 397 0
185 397 0
188 397 0
189 397 0
197 397 0
198 397 0
200 397 0
201 397 0
239 397 0
240 397 0
241 397 0
245 397 0
246 397 0
154 396 0
155 396 0
185 396 0
186 396 0
187 396 0
189 396 0
190 396 0
191 396 0
197 396 0
200 396 0
201 396 0
239 396 0
240 396 0
241 396 0
154 395 0
187 395 0
190 395 0
191 395 0
196 395 0
197 395 0
199 395 0
200 395 0
239 395 0
244 395 0
245 395 0
153 394 0
154 394 0
187 394 0
188 394 0
189 394 0
190 394 0
191 394 0
195 394 0
196 394 0
198 394 0
199 394 0
235 394 0
236 394 0
237 394 0
238 394 0
239 394 0
244 394 0
245 394 0
153 393 0
190 393 0
191 393 0
195 393 0
196 393 0
197 393 0
198 393 0
235 393 0
236 393 0
237 393 0
238 393 0
239 393 0
240 393 0
244 393 0
245 393 0
153 392 0
162 392 0
163 392 0
164 392 0
165 392 0
166 392 0
167 392 0
168 392 0
169 392 0
170 392 0
171 392 0
172 392 0
173 392 0
174 392 0
175 392 0
196 392 0
197 392 0
236 392 0
237 392 0
239 392 0
240 392 0
244 392 0
245 392 0
153 391 0
159 391 0
160 391 0
161 391 0
162 391 0
169 391 0
170 391 0
171 391 0
172 391 0
173 391 0
174 391 0
175 391 0
176 391 0
177 391 0
178 391 0
235 391 0
236 391 0
237 391 0
238 391 0
239 391 0
244 391 0
245 391 0
152 390 0
153 390 0
156 390 0
157 390 0
158 390 0
159 390 0
167 390 0
168 390 0
169 390 0
170 390 0
174 390 0
175 390 0
178 390 0
207 390 0
208 390 0
234 390 0
235 390 0
236 390 0
237 390 0
243 390 0
244 390 0
245 390 0
152 389 0
153 389 0
154 389 0
155 389 0
156 389 0
163 389 0
164 389 0
165 389 0
166 389 0
167 389 0
175 389 0
176 389 0
177 389 0
178 389 0
207 389 0
208 389 0
209 389 0
210 389 0
233 389 0
234 389 0
235 389 0
236 389 0
237 389 0
238 389 0
240 389 0
241 389 0
242 389 0
243 389 0
244 389 0
245 389 0
160 388 0
161 388 0
162 388 0
163 388 0
206 388 0
207 388 0
209 388 0
210 388 0
233 388 0
235 388 0
236 388 0
237 388 0
238 388 0
240 388 0
241 388 0
242 388 0
243 388 0
244 388 0
157 387 0
158 387 0
159 387 0
160 387 0
205 387 0
206 387 0
210 387 0
233 387 0
235 387 0
236 387 0
154 386 0
155 386 0
156 386 0
157 386 0
158 386 0
204 386 0
205 386 0
208 386 0
209 386 0
210 386 0
229 386 0
230 386 0
232 386 0
233 386 0
153 385 0
154 385 0
204 385 0
207 385 0
208 385 0
229 385 0
230 385 0
231 385 0
232 385 0
233 385 0
150 384 0
151 384 0
152 384 0
153 384 0
178 384 0
179 384 0
180 384 0
181 384 0
182 384 0
183 384 0
184 384 0
185 384 0
186 384 0
187 384 0
188 384 0
189 384 0
190 384 0
191 384 0
192 384 0
193 384 0
194 384 0
195 384 0
196 384 0
197 384 0
198 384 0
199 384 0
204 384 0
[...]
CELL_DATA 9372
COLOR_SCALARS lut 1
0.110298
0.109842
0.109649
0.10968
0.107683
0.107042
0.10659
0.101587
0.101776
0.102276
0.110207
0.108451
0.107059
0.105986
0.105201
0.104408
0.104615
0.104869
0.105092
0.0977749
0.09781
0.0981483
0.0988087
0.107818
0.106308
0.105135
0.103165
0.103377
0.103609
0.103783
0.103823
0.103668
0.103282
0.102664
0.0946705
0.094834
0.0953105
0.115349
0.112397
0.109923
0.107899
0.106288
0.102642
0.101899
0.0998176
0.0985974
0.101203
0.103891
0.116335
0.113291
0.108603
0.106913
0.105609
0.102072
0.100976
0.099708
0.0983377
0.0969388
0.0978657
0.100257
0.103042
0.114614
0.0974379
0.0959145
0.0899613
0.0903994
0.0935608
0.0952698
0.0997856
0.102636
0.11623
0.113611
0.0971425
0.0955382
0.0940581
0.0907191
0.0900667
0.089679
0.0895693
0.0897459
0.0909707
0.0920315
0.0996881
0.102573
0.12094
0.117993
0.115442
0.113303
0.0958
0.0942974
0.0929772
0.0918657
0.0898892
0.0905144
0.0998536
0.102745
0.132665
0.129004
0.125616
0.122521
0.119751
0.117338
0.115302
0.0907945
0.0906647
0.0907898
0.100168
0.103041
0.129825
0.126711
0.123885
0.121356
0.119147
0.11728
0.0981345
0.10052
0.130355
0.127483
0.124929
0.122677
0.120726
0.119087
0.0984873
0.100812
0.10359
0.106812
0.127932
0.125609
0.0969089
0.0987116
0.100972
0.10369
0.106855
0.110462
0.133732
0.130679
0.12809
0.125931
0.0970246
0.098758
0.10096
0.106762
0.130592
0.128015
0.0957334
0.0969357
0.0986176
0.103433
0.127774
0.125678
0.0955008
0.0966623
0.100485
0.103164
0.127431
0.125235
0.0944516
0.0950973
0.10014
0.124672
0.12293
0.0975116
0.099806
0.122107
0.0952775
0.097116
0.121223
0.119696
0.0948074
0.120351
0.118524
0.117405
0.11698
0.0928682
0.0943774
0.117383
0.115932
0.115208
0.115193
0.0916487
0.0909489
0.0908252
0.0912911
0.0923494
0.114514
0.113424
0.113077
0.113454
0.0917965
0.0906437
0.0900647
0.0900754
0.0906816
0.111733
0.110984
0.110992
0.111736
0.0922869
0.0906919
0.0896647
0.089224
0.0893785
0.109036
0.108605
0.108943
0.0884469
0.107371
0.106439
0.0878883
0.104649
0.0876985
0.0871032
0.0927498
0.0955552
0.105469
0.10339
0.102121
0.102023
0.103174
0.0878682
0.0868322
0.088479
0.0903254
0.0927422
0.105514
0.102799
0.100899
0.0998219
0.100132
0.101496
0.088383
0.0869138
0.0868164
0.0902687
0.10299
0.0984447
0.0999947
0.0892251
0.0873327
0.0860072
0.0852561
0.0850854
0.0855032
0.0865179
0.0881345
0.100782
0.0969733
0.0986851
0.0851277
0.0988781
0.0838877
0.084066
0.097252
0.083551
0.0833162
0.0958677
0.0834974
0.0828568
0.0828516
0.0834966
0.0847976
0.0867516
0.0946837
0.0836987
0.082662
0.0822635
0.0825221
0.0834482
0.0850422
0.087296
0.0936606
0.0818
0.0823577
0.0835969
0.0855129
0.088093
0.0927723
0.0813015
0.0815012
0.0823946
0.0839804
0.0862487
0.0891822
0.0920081
0.0809972
0.080854
0.0814151
0.0826832
0.084651
0.0873032
0.0913673
0.0803887
0.0806365
0.0908491
0.0927395
0.095978
0.0800722
0.080031
0.0904453
0.0900527
0.0925395
0.0958228
0.0795708
0.0800144
0.0901378
0.0883456
0.089911
0.0924381
0.0957639
0.0792416
0.0794697
0.0804548
0.0821874
0.0846469
0.0878047
0.0881445
0.0872606
0.0924206
0.0957874
0.0868212
0.0871431
0.0795488
0.0810026
0.0832065
0.0861316
0.087042
0.0871227
0.0880768
0.0898929
0.0793855
0.0870663
0.0880742
0.0899419
0.0802161
0.0791507
0.0794065
0.0807239
0.0891559
0.0933457
0.0981566
0.0899879
0.0804956
0.079392
0.0790905
0.0795964
0.0809002
0.0893256
0.09352
0.0983366
0.0880249
0.0900206
0.0808026
0.0796999
0.0794065
0.079928
0.0897687
0.0939948
0.0988413
0.0879617
0.0900346
0.0811096
0.080046
0.0797977
0.0803704
0.0878668
0.0813969
0.0804086
0.0856947
0.0863026
0.0877348
0.0816502
0.0807703
0.0853507
0.0852819
0.0860162
0.0875578
0.0818592
0.0811175
0.0847207
0.0848033
0.0856697
0.087324
0.0820186
0.0814415
0.0840164
0.0842569
0.0852594
0.0870275
0.0821301
0.081741
0.0821713
0.0834255
0.0846049
0.0835767
0.0832537
0.0836572
0.0826531
0.0841043
0.0834094
0.0825942
0.0830338
0.0843164
0.0831325
0.0847941
0.0822129
0.0816185
0.0816851
0.0824275
0.0838531
0.0836101
0.085493
0.0820423
0.0810601
0.080694
0.0840903
0.0862036
0.0807138
0.0799885
0.0798574
0.0845858
0.0869359
0.0840675
0.08204
0.0805025
0.0794895
0.0790276
0.0791368
0.0877078
0.0820702
0.0803536
0.0791176
0.0783921
0.0781986
0.0885883
0.0922262
0.0885404
0.0820359
0.0801976
0.077867
0.0774322
0.0775095
0.088864
0.0925361
0.0815677
0.0812006
0.0814651
0.0823987
0.0840319
0.0863839
0.0894548
0.0799692
0.0808786
0.080841
0.08142
0.0826499
0.0845592
0.0871658
0.0904693
0.0815183
0.0796069
0.0780345
0.0806232
0.0815151
0.0830379
0.0852179
0.0880718
0.0915989
0.0809258
0.0790572
0.076228
0.0753554
0.0805794
0.08178
0.0835894
0.0860319
0.0800735
0.0782836
0.0754781
0.0745415
0.073971
0.0798081
0.0807515
0.0822544
0.084342
0.0870371
0.0903545
0.0772778
0.0736067
0.0729629
0.0726742
0.079183
0.0799311
0.0811917
0.088282
0.0918129
0.0776488
0.0760578
0.0746627
0.0803425
0.079388
0.0787708
0.0785275
0.0786938
0.0793026
0.0746612
0.0790613
0.0784702
0.0782159
0.0783323
0.0788513
0.091691
0.0956123
0.0731419
0.0718935
0.0787453
0.0782097
0.0779819
0.0780892
0.078563
0.0794313
0.0939445
0.0980443
0.0763438
0.0745457
0.0729561
0.0715631
0.0703584
0.101952
0.0978574
0.0941517
0.0908524
0.0802634
0.0792046
0.0784507
0.0779878
0.0779516
0.0784192
0.0792477
0.0804616
0.0847601
0.0818249
0.0791985
0.0768614
0.0747929
0.0729707
0.0983491
0.0944608
0.090984
0.0879359
0.0788974
0.0781927
0.0778002
0.0777023
0.0778958
0.0783941
0.0792203
0.080825
0.0780463
0.0665466
0.0679371
0.0786814
0.0779901
0.0776455
0.0784482
0.079309
0.0804922
0.0802009
0.0772215
0.0653452
0.0667804
0.0778616
0.0775291
0.0775504
0.0785333
0.0794606
0.0876696
0.0836242
0.0799974
0.0767713
0.0895424
0.0864022
0.0837293
0.0774615
0.0774954
0.0778883
0.0796176
0.0809131
0.0824976
0.0843884
0.0841885
0.0905251
0.0872164
0.084369
0.0820031
0.0801331
0.0786365
0.0797304
0.0811172
0.0827811
0.0847254
0.0869655
0.0809808
0.0916288
0.0881718
0.0851641
0.0826303
0.0805898
0.0790563
0.0797664
0.0812396
0.0830014
0.0850327
0.0873343
0.0821948
0.0780233
0.0892038
0.086058
0.0833723
0.0811707
0.0794718
0.0777824
0.0785443
0.0876315
0.0902865
0.0932115
0.0793527
0.0685103
0.0657404
0.0570188
0.056092
0.055371
0.0548338
0.0544627
0.0542447
0.0541703
0.0542323
0.0544261
0.0547521
0.0552176
0.055838
0.0869986
0.084184
0.0818379
0.0786399
0.0778183
0.0784333
0.0795781
0.0811309
0.0830459
0.0852768
0.0877834
0.0905405
0.0935433
0.0968012
0.0767103
0.0727758
0.0692894
0.06623
0.0635733
0.0612924
0.0593579
0.0577395
0.0564073
0.0553313
0.0544818
0.0540441
0.0546842
0.0554879
0.0564688
0.057636
0.0589899
0.0605206
0.0622086
0.0640268
0.0850273
0.0825601
0.0805674
0.0776383
0.0777146
0.0809093
0.0828433
0.0742471
0.0704456
0.0521253
0.0525131
0.053029
0.0536844
0.054493
0.0554654
0.0566076
0.0609838
0.0626924
0.0644783
0.0663099
0.0681557
0.0833121
0.0812043
0.0795743
0.0781969
0.0806158
0.082519
0.0760692
0.0719512
0.0650721
0.0622673
0.0598507
0.0577942
0.0560682
0.0546425
0.0534872
0.0525726
0.0518695
0.051351
0.0509958
0.0507869
0.050713
0.0507665
0.0509418
0.0512357
0.0557407
0.0570058
0.0584059
0.0599188
0.0615171
0.0631714
0.0665313
0.068189
0.0698179
0.0891177
0.0918284
0.094726
0.0978078
0.081879
0.0801382
0.0788756
0.0789672
0.0803006
0.0821216
0.0737829
0.0698184
0.0663089
0.0632325
0.0620444
0.063578
0.068019
0.069433
0.0830876
0.0854346
0.0907002
0.0936143
0.0807533
0.0793834
0.0784889
0.0800257
0.0817153
0.0759212
0.0716476
0.0624973
0.0638578
0.0651715
0.0676672
0.0688869
0.0701336
0.0798345
0.0869159
0.0896538
0.0799565
0.0789581
0.0784291
0.0737627
0.0639804
0.0671782
0.0682446
0.0750512
0.0768535
0.0810211
0.0833889
0.0795062
0.0811645
0.0830115
0.0761554
0.0717349
0.0629921
0.0639388
0.0648347
0.0657102
0.0666063
0.0710754
0.0725242
0.07595
0.0779423
0.0844293
0.0826297
0.0811799
0.080101
0.0794174
0.0827904
0.0849487
0.0740877
0.0644655
0.0652017
0.0689856
0.0702555
0.0716943
0.0733128
0.0831233
0.0817349
0.0806899
0.0800052
0.0797015
0.0798041
0.0847427
0.0871941
0.0721516
0.0501187
0.0492759
0.0486477
0.0482039
0.0479156
0.0477569
0.0477064
0.0477487
0.0478774
0.0480919
0.048394
0.0487888
0.0492831
0.0498834
0.0682155
0.069472
0.0812073
0.0805743
0.0803651
0.0808295
0.0870317
0.0897585
0.0703503
0.0533399
0.0518049
0.0505612
0.0495803
0.0476729
0.0478252
0.048054
0.0483629
0.0487588
0.0492508
0.049847
0.0505533
0.0513704
0.0522924
0.0815889
0.0810515
0.0808371
0.0809531
0.081413
0.0896675
0.0926532
0.0729023
0.0686814
0.0588173
0.0563784
0.0543129
0.0525889
0.0475702
0.0476088
0.0477173
0.0478905
0.0493171
0.049903
0.0523114
0.0831719
0.0856406
0.0817863
0.0813735
0.0812733
0.0814831
0.0898735
0.0926585
0.0958876
0.0711856
0.0671404
0.0635714
0.0604573
0.0577703
0.0483138
0.0479433
0.0477284
0.0476383
0.0476451
0.0500393
0.050717
0.0515038
0.0523929
0.0794628
0.0817371
0.0840654
0.0864051
0.0817722
0.0815015
0.0815392
0.0818809
0.0825183
0.0834482
0.0862186
0.0880986
0.0903417
0.0929719
0.0960099
0.0994679
0.0502597
0.049348
0.0486728
0.0482056
0.073946
0.0759448
0.080176
0.082338
0.081419
0.0820962
0.0828816
0.0839471
0.0852847
0.0887937
0.0910005
0.0935415
0.0964411
0.0997209
0.0540159
0.0523554
0.0510079
0.0499436
0.0690983
0.0708102
0.0784953
0.0814633
0.0830504
0.0842774
0.0601712
0.0575349
0.0552981
0.0534282
0.0518925
0.064914
0.0663401
0.0712818
0.0730789
0.0749006
0.0804536
0.0804087
0.0811184
0.0819131
0.0621613
0.0592521
0.0625279
0.066701
0.0682802
0.0795342
0.079924
0.0805812
0.0815258
0.0827697
0.0722054
0.0680556
0.0643901
0.0611905
0.053624
0.0544616
0.0553295
0.056184
0.0569775
0.0576636
0.0582035
0.0585712
0.058756
0.0587639
0.0586153
0.0583413
0.0579818
0.0575807
0.0571803
0.0568144
0.0565112
0.0562966
0.0561923
0.0562142
0.0563735
0.056677
0.0603707
0.0615123
0.0627673
0.0641187
0.0790424
0.0798643
0.0809595
0.0753401
0.0708585
0.0515641
0.052068
0.0526615
0.0533462
0.0541111
0.0579805
0.0584549
0.0587466
0.0588455
0.0587594
0.05851
0.0581307
0.0576628
0.0571512
0.055745
0.0554181
0.0552012
0.0551102
0.0553456
0.0556824
0.0766552
0.0772253
0.0779885
0.0789794
0.0739454
0.0486581
0.0487571
0.0489617
0.0516908
0.0521359
0.0526531
0.0532555
0.0539439
0.0547062
0.0555181
0.0563425
0.0571333
0.0578416
0.0584203
0.0568553
0.0562348
0.0556486
0.055126
0.0541745
0.0541152
0.0544299
0.0758058
0.0767679
0.0810021
0.0829429
0.0773298
0.0726626
0.0490208
0.0488779
0.048896
0.0490474
0.0493005
0.0511322
0.0515116
0.051902
0.0523206
0.0533233
0.0532376
0.0532246
0.0533574
0.0536342
0.070888
0.0715921
0.0723588
0.0732244
0.0742223
0.0753831
0.0801042
0.0821721
0.0845148
0.0759926
0.0527571
0.0515525
0.050621
0.0499357
0.0494727
0.0492099
0.049126
0.049198
0.0493992
0.0517286
0.0521428
0.0525652
0.0530124
0.0535041
0.0540585
0.0524011
0.0526318
0.0529544
0.0683559
0.0692562
0.070226
0.0712934
0.072489
0.0738401
0.0812545
0.0837124
0.0864407
0.0747517
0.0557579
0.0540317
0.052629
0.0515185
0.0495556
0.0517058
0.0520195
0.0601807
0.0611106
0.0620369
0.0629621
0.0668839
0.0680149
0.0692533
0.0706222
0.0735973
0.0625387
0.0597867
0.0574479
0.0554885
0.0497794
0.0499456
0.0511185
0.0510224
0.0510621
0.0512311
0.051521
0.0567971
0.0576573
0.0585394
0.0613281
0.0623306
0.0657731
0.0671365
0.0686431
0.070311
0.0725214
0.0685039
0.0649863
0.06194
0.0504556
0.0501755
0.0500749
0.0501359
0.0504685
0.0508086
0.0511436
0.0547519
0.0555247
0.0610841
0.0649874
0.0665813
0.0683523
0.0703135
0.0525998
0.0517363
0.051104
0.0506801
0.0499926
0.0500619
0.0505247
0.0508998
0.0537765
0.0601235
0.0614148
0.0628608
0.0644833
0.0663021
0.0566274
0.0550061
0.0536902
0.0526479
0.0548326
0.0537883
0.0528306
0.0519819
0.049671
0.0498177
0.0503927
0.0523961
0.0530263
0.0561143
0.0570883
0.0581805
0.0594155
0.0608181
0.0624107
0.0642152
0.0630992
0.0604855
0.0582743
0.0564255
0.0545456
0.0517072
0.0495269
0.0497451
0.0500462
0.0504217
0.0518977
0.0546148
0.0554895
0.058926
0.0688542
0.0654717
0.0625592
0.0542171
0.0531922
0.0514399
0.0507471
0.0493555
0.0495621
0.0498459
0.0501989
0.0515866
0.052144
0.0527549
0.0534318
0.0541933
0.058618
0.0717933
0.0680646
0.0580717
0.0586268
0.0591852
0.0597307
0.0528563
0.0519588
0.0505171
0.0497721
0.0501144
0.0505114
0.0584525
0.0601319
0.0749878
0.0708994
0.055532
0.0561038
0.0566566
0.0571921
0.0577158
0.0582339
0.0587496
0.0592569
0.0597404
0.0516423
0.050293
0.0501425
0.0505329
0.0583899
0.0601326
0.0739961
0.051617
0.051793
0.0540039
0.0545898
0.055186
0.0557762
0.0568942
0.0574147
0.0579131
0.0583945
0.0588611
0.0593071
0.059718
0.0513077
0.0506259
0.0500675
0.0496366
0.0502548
0.0506468
0.0601807
0.0622978
0.0773716
0.0730674
0.0517603
0.0518308
0.0520255
0.0542867
0.0554773
0.0560676
0.056634
0.0571672
0.0503382
0.0494642
0.0492108
0.0624062
0.0763634
0.0529937
0.0525188
0.0522029
0.052033
0.0520003
0.0520967
0.0523135
0.0546315
0.055225
0.0558238
0.0500472
0.0496106
0.0492943
0.0490957
0.0557469
0.0569617
0.0624814
0.0754305
0.054527
0.053738
0.0531375
0.0527067
0.052418
0.0526588
0.0550317
0.0556233
0.049389
0.0489874
0.0489514
0.0558176
0.0570088
0.0584939
0.060316
0.0625125
0.0789324
0.0745676
0.0581542
0.0567217
0.0555531
0.0546152
0.0526319
0.0527839
0.0560066
0.0551561
0.0542729
0.0533915
0.0491821
0.0489816
0.0489027
0.0490124
0.0549872
0.0558971
0.0779682
0.0640607
0.0617058
0.0597268
0.0580808
0.0529358
0.0529947
0.0560904
0.0552896
0.052754
0.0519625
0.0488501
0.0488074
0.0490173
0.054433
0.0551091
0.0770372
0.0729959
0.0694467
0.0663665
0.0637245
0.0614851
0.0542702
0.0538021
0.0534878
0.0533151
0.0532743
0.0554031
0.0545993
0.0537734
0.0529497
0.0514208
0.0507612
0.0487416
0.0488406
0.049031
0.049305
0.0496525
0.0545967
0.0761164
0.0722455
0.0688567
0.0558514
0.0550758
0.0544797
0.0523541
0.0516078
0.0503274
0.0488282
0.0490536
0.0497408
0.0501814
0.0547661
0.0553692
0.0622346
0.0647297
0.0676928
0.0654857
0.0631087
0.0611005
0.0594204
0.0580282
0.0568872
0.0559641
0.0511085
0.0499374
0.0490816
0.0494197
0.0498292
0.0502987
0.0508131
0.0549412
0.0555097
0.056254
0.0572312
0.0584965
0.0601027
0.0620991
0.0674371
0.0708401
0.0707339
0.067676
0.0650434
0.0627991
0.0506567
0.0500783
0.049587
0.0494764
0.0499137
0.0509497
0.0704877
0.0771218
0.0733086
0.0699708
0.0592228
0.0590281
0.0502534
0.0497207
0.0492755
0.049991
0.0510745
0.0700931
0.0801193
0.0759988
0.0587487
0.0590995
0.059339
0.0594514
0.0594316
0.0592852
0.0590244
0.0494141
0.0490089
0.0486928
0.0500641
0.0506073
0.0511899
0.0696564
0.0788273
0.0563617
0.056943
0.0575292
0.0580939
0.0586108
0.0590531
0.0593958
0.0596153
0.0596956
0.0596319
0.0594306
0.0591053
0.0491725
0.0488011
0.0485163
0.0483157
0.0507092
0.0513085
0.0691755
0.0728113
0.0818323
0.0775722
0.0554901
0.0560158
0.0566042
0.0578488
0.0584443
0.0589831
0.0594364
0.0550785
0.0542351
0.0534049
0.0486709
0.0484111
0.0482328
0.0481345
0.0508434
0.0514564
0.0722006
0.0804552
0.054595
0.0548382
0.055208
0.0556898
0.0569007
0.0575702
0.0582382
0.0588717
0.0558761
0.0549867
0.054104
0.0532482
0.0524375
0.0486379
0.0483984
0.0482375
0.0481548
0.0628067
0.0652047
0.0681116
0.0715594
0.0791573
0.0547005
0.0545617
0.0545639
0.0547089
0.0565728
0.0572649
0.0559678
0.0550286
0.0541077
0.0524022
0.0516488
0.0482893
0.0483824
0.0485621
0.051996
0.0526306
0.0532392
0.0606325
0.0624706
0.0779526
0.0553972
0.055017
0.0547677
0.0562687
0.0569532
0.0542437
0.0533375
0.0525002
0.0517439
0.0510727
0.0485438
0.0488531
0.049147
0.0524646
0.0531048
0.0537096
0.0542583
0.0573454
0.0580857
0.0590955
0.0604359
0.0809295
0.0768466
0.0591348
0.0581312
0.0572777
0.0565573
0.0559599
0.0554818
0.055122
0.0555014
0.0560225
0.0566667
0.052722
0.0519621
0.0512955
0.0489186
0.0490491
0.0495971
0.0500196
0.0543531
0.0548879
0.056361
0.056533
0.0567479
0.0570528
0.057502
0.058153
0.0797439
0.0758379
0.0724337
0.0694996
0.0669914
0.0648598
0.0630539
0.061523
0.0602217
0.0591126
0.0581653
0.055319
0.0551215
0.0550715
0.0551784
0.0554463
0.0558729
0.0530527
0.0522883
0.0516241
0.049564
0.049821
0.0506463
0.0551822
0.0557028
0.0561294
0.0568381
0.0569458
0.0786386
0.0749153
0.0716863
0.0568762
0.0563361
0.0559078
0.0556
0.055428
0.0534805
0.0527099
0.052045
0.0504842
0.0508919
0.0514077
0.056701
0.057099
0.057647
0.0585648
0.0592519
0.0602478
0.0657238
0.0685586
0.0719598
0.0643395
0.0627693
0.0614402
0.0603077
0.0593365
0.0584993
0.0577773
0.0571615
0.0540047
0.0525539
0.0517135
0.0522902
0.0529661
0.0586036
0.0585551
0.0584829
0.0584308
0.0584476
0.0585877
0.0589088
0.0603352
0.0615687
0.0632344
0.065389
0.0713355
0.0751797
0.0732517
0.070386
0.0679534
0.0659016
0.0641765
0.0546391
0.0538426
0.0531595
0.0526334
0.0540256
0.0744576
0.0792752
0.075628
0.0724805
0.0697989
0.0545901
0.0538846
0.053292
0.0536425
0.0543623
0.0551836
0.0737736
0.0781445
0.0645426
0.0656745
0.0666989
0.0682243
0.068648
0.0688136
0.06871
0.0683398
0.0677197
0.0658522
0.0646854
0.0634269
0.0554979
0.0547584
0.0541348
0.0536235
0.0555327
0.0564288
0.0731166
0.0808294
0.0770546
0.0601162
0.0611131
0.0622501
0.0634852
0.0647698
0.0660498
0.0672674
0.0683648
0.0699895
0.0704369
0.070609
0.0704958
0.070101
0.0694433
0.0674701
0.0662408
0.0649173
0.0635532
0.0621972
0.0558088
0.0551413
0.054591
0.0541578
0.0538424
0.0567861
0.0577526
0.0724728
0.0763549
0.083725
0.0796002
0.0602894
0.0612364
0.0623623
0.0636295
0.0649929
0.0664001
0.0677942
0.0720476
0.0725277
0.0680947
0.0666982
0.0652598
0.0638305
0.0557297
0.055253
0.0549044
0.0581203
0.0591484
0.0755845
0.0823823
0.0614013
0.0637693
0.0651872
0.0687736
0.0672522
0.0657393
0.0558802
0.0557832
0.0558401
0.063943
0.0657856
0.0681959
0.071204
0.0748266
0.0811202
0.0626308
0.063886
0.0653292
0.0695201
0.0679145
0.0572277
0.0571056
0.0571525
0.0573737
0.0617684
0.0624935
0.0636925
0.0841126
0.0799455
0.0611112
0.0618191
0.0627756
0.0639788
0.06541
0.0587256
0.0585706
0.0585991
0.058816
0.0592235
0.0598185
0.0616748
0.0615317
0.0617385
0.0828685
0.0608173
0.0608691
0.0610745
0.0614667
0.0620801
0.0640633
0.0654427
0.0601704
0.0603741
0.0613826
0.0640338
0.0631078
0.0623552
0.061832
0.0615956
0.0817119
0.0745702
0.0717868
0.0694809
0.0676044
0.0661023
0.0649151
0.0639838
0.0632566
0.0626895
0.0622472
0.0619037
0.0616446
0.0614664
0.0613768
0.0613955
0.0641647
0.0654556
0.0620357
0.0624295
0.0630276
0.064434
0.0806289
0.0769555
0.0738205
0.062761
0.0634115
0.0643112
0.0654853
0.0641605
0.0647416
0.0655115
0.0648
0.0637127
0.0628023
0.0621214
0.0617238
0.0616675
0.0620123
0.0751628
0.0794564
0.0795987
0.0761005
0.0686606
0.0670557
0.0657992
0.0648325
0.0640991
0.0635507
0.0631482
0.0628615
0.0626703
0.062565
0.062547
0.0626289
0.0628346
0.0631957
0.0637474
0.0645266
0.0780076
0.0760668
0.065965
0.0665155
0.067256
0.0619422
0.062661
0.0638822
0.0656492
0.0745217
0.0787135
0.0724968
0.0701972
0.0683418
0.0668776
0.0812242
0.0791545
0.0653545
0.0739344
0.0780261
0.0745064
0.0718933
0.0697613
0.0824518
0.0803663
0.0650951
0.080214
0.0767103
0.0737566
0.08597
0.0837488
0.0796934
0.0778971
0.0648575
0.0669351
0.0830394
0.0791386
0.0754698
0.0780338
0.0830104
0.0810568
0.0792877
0.0666251
0.081835
0.0749082
0.0773244
0.0800532
0.0865682
0.0844524
0.0825178
0.0807965
0.0793187
0.0781098
0.0663233
0.0688096
0.0806785
0.0743716
0.0766232
0.0792064
0.0821026
0.0859925
0.0840992
0.0810765
0.0684205
0.0835944
0.0795722
0.0759279
0.0783489
0.0811021
0.0876578
0.0858342
0.0842868
0.0830377
0.0667152
0.0653533
0.0641611
0.0631736
0.0624296
0.0619737
0.0618564
0.0621287
0.0628403
0.064037
0.0657592
0.0680397
0.0709037
0.0824015
0.0774807
0.0800722
0.0894909
0.0877687
0.0863473
0.0816961
0.0807429
0.0796036
0.0782916
0.0768314
0.0752559
0.0736037
0.0719168
0.0702393
0.0686161
0.06709
0.0621726
0.0627986
0.0655109
0.067672
0.0704088
0.0812734
0.074509
0.0765983
0.0915435
0.0899504
0.0830644
0.0819566
0.0806781
0.0792445
0.0776807
0.0760184
0.0742944
0.0725482
0.070821
0.0691548
0.0675893
0.0673197
0.0699174
0.0802117
0.0736147
0.0711762
0.0692543
0.067795
0.0667412
0.0660346
0.0656196
0.0654467
0.0654728
0.0656631
0.0659939
0.0664514
0.0670306
0.067735
0.0685756
0.069571
0.0707471
0.0721367
0.0737767
0.0757029
0.0779454
0.0924126
0.0912649
0.0903965
0.0698252
0.0682102
0.0667307
0.0654141