# vtk DataFile Version 1.0
Unstructured Grid Example
ASCII

DATASET UNSTRUCTURED_GRID
POINTS 1387 float
211 478 0
214 478 0
230 478 0
207 477 0
217 476 0
232 476 0
204 475 0
221 475 0
240 475 0
201 474 0
225 474 0
238 473 0
227 472 0
234 472 0
201 471 0
231 471 0
243 471 0
195 470 0
237 470 0
199 469 0
245 469 0
193 467 0
248 466 0
190 465 0
251 464 0
248 463 0
189 462 0
251 461 0
189 459 0
249 458 0
253 458 0
189 456 0
251 456 0
187 454 0
253 454 0
260 453 0
184 452 0
189 451 0
258 451 0
254 450 0
183 449 0
258 447 0
183 445 0
260 445 0
264 445 0
183 442 0
266 442 0
263 441 0
183 438 0
190 438 0
263 438 0
268 438 0
266 436 0
185 435 0
188 434 0
270 433 0
262 432 0
188 431 0
265 431 0
185 427 0
262 427 0
265 426 0
182 425 0
184 423 0
264 422 0
181 421 0
178 419 0
182 418 0
189 418 0
262 418 0
259 417 0
265 417 0
175 416 0
178 415 0
263 415 0
173 414 0
176 413 0
260 413 0
171 412 0
253 412 0
256 412 0
264 410 0
166 409 0
170 409 0
251 409 0
256 409 0
161 408 0
242 408 0
248 407 0
253 407 0
179 406 0
160 405 0
241 405 0
250 405 0
157 404 0
244 404 0
239 403 0
254 403 0
247 402 0
160 401 0
167 401 0
170 401 0
173 401 0
241 401 0
251 401 0
165 400 0
178 400 0
245 400 0
156 399 0
176 399 0
185 399 0
239 399 0
161 398 0
166 398 0
169 398 0
173 398 0
181 398 0
198 398 0
247 398 0
158 397 0
189 397 0
154 396 0
186 396 0
201 396 0
239 396 0
191 395 0
188 394 0
199 394 0
236 394 0
195 393 0
244 393 0
153 392 0
162 392 0
166 392 0
173 392 0
170 391 0
176 391 0
239 391 0
159 390 0
167 390 0
174 390 0
178 390 0
244 390 0
152 389 0
155 389 0
165 389 0
209 389 0
235 389 0
160 388 0
163 388 0
206 388 0
238 388 0
242 388 0
158 387 0
233 387 0
156 386 0
204 386 0
210 386 0
153 385 0
207 385 0
231 385 0
179 384 0
182 384 0
190 384 0
194 384 0
176 383 0
184 383 0
187 383 0
199 383 0
227 383 0
149 382 0
174 382 0
178 382 0
181 382 0
191 382 0
197 382 0
161 381 0
164 381 0
200 381 0
229 381 0
159 380 0
171 380 0
175 380 0
202 380 0
225 380 0
148 379 0
155 379 0
222 379 0
153 378 0
163 378 0
199 378 0
213 378 0
216 378 0
150 377 0
161 377 0
201 377 0
204 377 0
210 377 0
157 376 0
220 376 0
153 375 0
193 375 0
202 375 0
205 375 0
209 375 0
217 375 0
213 374 0
150 373 0
196 373 0
204 373 0
210 373 0
147 372 0
177 372 0
193 372 0
207 372 0
171 371 0
174 371 0
218 371 0
162 370 0
167 370 0
178 370 0
194 370 0
197 370 0
206 370 0
145 369 0
172 369 0
156 368 0
160 368 0
168 368 0
198 368 0
215 368 0
162 367 0
168 367 0
196 367 0
219 367 0
151 366 0
154 366 0
186 366 0
189 366 0
200 366 0
214 366 0
144 365 0
160 365 0
198 365 0
148 364 0
155 364 0
158 364 0
187 364 0
202 364 0
153 363 0
189 363 0
200 363 0
213 363 0
151 362 0
191 362 0
215 362 0
219 362 0
222 362 0
146 361 0
201 361 0
204 361 0
143 360 0
174 360 0
172 359 0
190 359 0
202 359 0
222 359 0
167 358 0
170 358 0
175 358 0
141 357 0
163 357 0
194 357 0
203 357 0
159 356 0
165 356 0
180 356 0
184 356 0
192 356 0
223 356 0
157 355 0
182 355 0
197 355 0
204 355 0
220 355 0
141 354 0
155 354 0
162 354 0
186 354 0
206 354 0
149 353 0
152 353 0
159 353 0
184 353 0
195 353 0
199 353 0
213 353 0
217 353 0
143 352 0
146 352 0
157 352 0
207 352 0
211 352 0
140 351 0
154 351 0
186 351 0
198 351 0
218 351 0
150 350 0
184 350 0
212 350 0
215 350 0
222 350 0
225 350 0
142 349 0
145 349 0
200 349 0
185 348 0
198 348 0
139 347 0
166 347 0
170 347 0
177 347 0
187 347 0
225 347 0
174 346 0
180 346 0
161 345 0
164 345 0
189 345 0
200 345 0
137 344 0
192 344 0
225 344 0
179 343 0
194 343 0
221 343 0
159 342 0
191 342 0
196 342 0
136 341 0
155 341 0
219 341 0
140 340 0
148 340 0
152 340 0
194 340 0
215 340 0
157 339 0
221 339 0
227 339 0
144 338 0
150 338 0
154 338 0
183 338 0
196 338 0
224 338 0
138 337 0
141 337 0
135 335 0
183 335 0
186 335 0
225 335 0
159 333 0
188 333 0
191 332 0
134 331 0
157 331 0
215 331 0
218 331 0
221 331 0
225 330 0
155 329 0
192 329 0
207 329 0
210 329 0
213 329 0
139 328 0
142 328 0
147 328 0
217 328 0
220 328 0
223 328 0
135 327 0
153 327 0
194 327 0
229 327 0
145 326 0
149 326 0
138 325 0
133 324 0
230 324 0
337 323 0
131 321 0
231 321 0
227 320 0
224 319 0
131 318 0
217 318 0
220 318 0
210 317 0
133 316 0
136 316 0
140 316 0
150 316 0
154 316 0
213 316 0
223 316 0
226 316 0
143 315 0
229 315 0
138 314 0
146 314 0
152 314 0
156 314 0
132 313 0
135 313 0
232 313 0
156 310 0
232 310 0
130 309 0
229 308 0
226 307 0
219 306 0
223 306 0
153 305 0
216 305 0
129 304 0
133 304 0
138 304 0
142 304 0
156 304 0
221 304 0
225 304 0
228 304 0
232 304 0
145 303 0
150 303 0
135 302 0
154 302 0
234 302 0
130 301 0
234 297 0
129 296 0
231 296 0
228 295 0
212 294 0
215 294 0
222 294 0
225 294 0
134 293 0
137 293 0
145 293 0
151 293 0
130 292 0
217 292 0
220 292 0
227 292 0
230 292 0
140 291 0
143 291 0
148 291 0
153 291 0
234 291 0
133 290 0
136 290 0
131 287 0
234 287 0
231 285 0
229 284 0
224 283 0
227 283 0
240 283 0
246 283 0
132 282 0
137 282 0
189 282 0
206 282 0
209 282 0
214 282 0
218 282 0
237 282 0
243 282 0
144 281 0
148 281 0
222 281 0
226 281 0
231 281 0
135 280 0
151 280 0
212 280 0
216 280 0
233 280 0
238 280 0
241 280 0
247 280 0
138 279 0
141 279 0
146 279 0
235 279 0
237 278 0
41 277 0
134 277 0
233 277 0
241 277 0
244 277 0
232 275 0
249 275 0
253 275 0
134 274 0
245 274 0
225 273 0
230 273 0
242 273 0
256 273 0
221 272 0
228 272 0
234 272 0
252 272 0
260 272 0
134 271 0
195 271 0
247 271 0
263 271 0
201 270 0
219 270 0
230 270 0
250 270 0
254 270 0
257 270 0
145 269 0
193 269 0
197 269 0
216 269 0
221 269 0
226 269 0
232 269 0
245 269 0
260 269 0
224 268 0
133 267 0
147 267 0
230 267 0
243 265 0
246 265 0
133 264 0
238 264 0
223 263 0
226 263 0
229 263 0
236 263 0
231 262 0
240 262 0
244 262 0
248 262 0
135 261 0
225 261 0
138 260 0
218 260 0
222 260 0
234 260 0
242 260 0
246 260 0
145 259 0
200 259 0
203 259 0
210 259 0
214 259 0
224 259 0
237 259 0
249 259 0
133 258 0
136 258 0
141 258 0
217 258 0
226 258 0
240 258 0
244 258 0
148 257 0
208 257 0
212 257 0
219 257 0
223 257 0
151 256 0
221 256 0
225 256 0
237 256 0
246 256 0
250 256 0
240 255 0
133 254 0
223 254 0
253 254 0
249 253 0
219 251 0
133 250 0
210 250 0
215 249 0
138 248 0
208 248 0
220 248 0
212 247 0
217 247 0
133 246 0
136 246 0
143 246 0
139 245 0
215 245 0
132 243 0
220 243 0
218 241 0
132 240 0
134 238 0
131 237 0
211 237 0
217 237 0
220 237 0
136 236 0
214 236 0
222 235 0
130 234 0
139 234 0
224 233 0
131 230 0
134 229 0
222 229 0
225 229 0
130 227 0
137 227 0
227 227 0
133 225 0
216 225 0
219 225 0
222 225 0
230 225 0
136 224 0
139 223 0
130 222 0
229 221 0
130 219 0
227 219 0
233 218 0
225 217 0
131 216 0
231 216 0
235 216 0
58 215 0
135 215 0
222 215 0
129 214 0
226 214 0
495 214 0
220 213 0
236 213 0
504 212 0
499 211 0
130 210 0
236 209 0
507 209 0
459 208 0
504 208 0
131 207 0
500 207 0
236 204 0
239 204 0
372 204 0
423 204 0
429 203 0
133 202 0
290 202 0
300 202 0
241 201 0
287 201 0
295 201 0
320 201 0
329 201 0
267 200 0
134 199 0
241 198 0
134 196 0
243 196 0
246 195 0
137 191 0
245 191 0
248 189 0
137 188 0
250 186 0
138 185 0
135 184 0
252 184 0
135 181 0
250 181 0
132 178 0
254 178 0
129 174 0
256 174 0
127 172 0
258 171 0
124 169 0
259 168 0
125 166 0
260 164 0
125 162 0
84 161 0
363 161 0
262 160 0
261 157 0
123 156 0
262 154 0
10 153 0
13 152 0
122 151 0
10 150 0
264 149 0
4 147 0
7 146 0
119 145 0
476 145 0
9 143 0
266 143 0
12 142 0
10 140 0
117 139 0
267 139 0
268 135 0
116 133 0
270 130 0
113 127 0
269 127 0
271 124 0
115 122 0
271 121 0
189 120 0
114 118 0
187 117 0
191 117 0
271 116 0
146 115 0
193 115 0
114 114 0
143 114 0
151 114 0
157 113 0
185 113 0
271 113 0
163 112 0
141 111 0
168 111 0
173 111 0
177 111 0
195 111 0
113 110 0
180 110 0
38 109 0
184 109 0
41 108 0
196 108 0
241 108 0
274 108 0
112 107 0
139 107 0
237 107 0
31 106 0
246 106 0
232 105 0
111 104 0
138 104 0
275 104 0
198 103 0
226 103 0
221 102 0
249 101 0
277 101 0
137 100 0
199 100 0
216 100 0
212 99 0
279 99 0
110 98 0
201 98 0
205 98 0
209 98 0
250 98 0
286 98 0
320 98 0
135 97 0
289 97 0
253 96 0
284 96 0
109 95 0
281 95 0
293 95 0
302 95 0
313 95 0
316 95 0
319 95 0
323 95 0
299 94 0
307 94 0
310 94 0
329 94 0
134 93 0
321 93 0
109 92 0
256 92 0
295 92 0
334 92 0
318 91 0
327 91 0
337 91 0
133 90 0
299 90 0
324 90 0
331 90 0
108 89 0
335 89 0
339 89 0
105 88 0
259 87 0
326 87 0
330 87 0
132 86 0
319 86 0
322 86 0
339 86 0
103 85 0
332 85 0
459 85 0
134 84 0
260 84 0
337 84 0
410 84 0
413 83 0
101 82 0
136 82 0
262 82 0
335 82 0
377 80 0
386 80 0
138 79 0
263 79 0
334 79 0
100 78 0
380 78 0
339 77 0
342 77 0
396 77 0
141 76 0
261 76 0
331 76 0
352 76 0
355 76 0
362 76 0
365 76 0
374 76 0
99 75 0
349 75 0
359 75 0
143 74 0
338 74 0
342 74 0
346 74 0
367 74 0
370 74 0
380 74 0
397 74 0
424 74 0
262 73 0
351 73 0
355 73 0
99 72 0
145 72 0
328 72 0
333 72 0
336 72 0
340 72 0
344 72 0
374 72 0
392 72 0
151 71 0
141 70 0
263 70 0
326 70 0
363 70 0
99 69 0
143 68 0
148 68 0
151 68 0
235 68 0
254 68 0
323 68 0
154 67 0
251 67 0
258 67 0
262 67 0
100 66 0
227 66 0
240 66 0
244 66 0
319 66 0
204 65 0
265 65 0
94 64 0
102 64 0
157 64 0
207 64 0
315 64 0
105 63 0
180 63 0
192 63 0
97 62 0
166 62 0
172 62 0
309 62 0
312 62 0
158 61 0
163 61 0
268 61 0
93 60 0
100 60 0
104 60 0
307 60 0
20 59 0
170 59 0
270 59 0
304 59 0
13 58 0
17 58 0
28 58 0
36 58 0
159 58 0
31 57 0
163 57 0
166 57 0
301 57 0
6 56 0
11 56 0
93 56 0
270 56 0
298 56 0
1 55 0
16 55 0
20 55 0
25 55 0
169 55 0
172 55 0
293 54 0
4 53 0
10 53 0
14 53 0
97 53 0
270 53 0
1 52 0
18 52 0
34 52 0
171 52 0
289 52 0
8 51 0
31 51 0
99 51 0
102 51 0
4 50 0
16 50 0
20 50 0
23 50 0
106 50 0
269 50 0
476 50 0
479 50 0
34 49 0
37 49 0
109 49 0
112 49 0
170 49 0
290 49 0
293 49 0
390 49 0
493 49 0
500 49 0
506 49 0
2 48 0
297 48 0
400 48 0
405 48 0
408 48 0
114 47 0
168 47 0
266 47 0
301 47 0
367 47 0
388 47 0
498 47 0
503 47 0
111 46 0
304 46 0
307 46 0
345 46 0
371 46 0
393 46 0
396 46 0
402 46 0
468 46 0
107 45 0
166 45 0
263 45 0
312 45 0
317 45 0
355 45 0
362 45 0
377 45 0
412 45 0
104 44 0
160 44 0
163 44 0
259 44 0
335 44 0
340 44 0
367 44 0
373 44 0
380 44 0
[...]
CELL_DATA 1387
COLOR_SCALARS lut 1
0.181658
0.18089
0.172401
0.184049
0.176126
0.16094
0.186546
0.17293
0.176311
0.197428
0.164512
0.158779
0.162135
0.152005
0.192283
0.155903
0.169459
0.218928
0.154077
0.199032
0.17059
0.217109
0.171337
0.221624
0.175077
0.161387
0.211577
0.161693
0.199245
0.155534
0.156723
0.188362
0.152167
0.180634
0.149153
0.162164
0.178989
0.172245
0.147333
0.14821
0.171035
0.141792
0.160685
0.139607
0.148147
0.156144
0.14816
0.136846
0.15297
0.162518
0.134478
0.149011
0.137467
0.147716
0.152638
0.15871
0.137128
0.152795
0.136394
0.143917
0.139191
0.141579
0.14358
0.138625
0.142707
0.136977
0.139279
0.131539
0.15704
0.139836
0.137257
0.153533
0.138342
0.127883
0.146002
0.13589
0.124916
0.137788
0.131775
0.136347
0.133267
0.166388
0.129561
0.119403
0.133136
0.134489
0.143844
0.160307
0.133528
0.133132
0.110895
0.130286
0.15196
0.132182
0.142874
0.135991
0.1555
0.148212
0.132002
0.111566
0.0939684
0.092057
0.0923649
0.138885
0.144721
0.093901
0.0958315
0.131887
0.126002
0.0911062
0.112533
0.141387
0.0980808
0.0880261
0.0861889
0.0869505
0.0991189
0.151239
0.139366
0.10731
0.117833
0.128844
0.108371
0.152149
0.135692
0.115816
0.108509
0.132273
0.140228
0.117073
0.143814
0.122446
0.0850549
0.0813162
0.082798
0.0811626
0.0857925
0.138163
0.089247
0.0807299
0.0836946
0.0887761
0.157248
0.120807
0.1026
0.0809984
0.142665
0.138378
0.0852943
0.0818082
0.125491
0.144734
0.158746
0.0888508
0.138249
0.0938448
0.110164
0.127112
0.105492
0.113196
0.136752
0.0924251
0.0966948
0.0983991
0.0959035
0.0893703
0.099202
0.0997187
0.0939254
0.131057
0.125491
0.0884782
0.0928403
0.0969592
0.0964874
0.091938
0.0831917
0.0832368
0.0905512
0.135942
0.0847444
0.08849
0.0917411
0.0898673
0.125312
0.126859
0.0916956
0.117528
0.097493
0.0847611
0.0867517
0.0993454
0.104078
0.110286
0.0849806
0.0856486
0.0867943
0.0929178
0.0878001
0.109433
0.0961007
0.0912825
0.0842951
0.08552
0.0889198
0.100832
0.092685
0.106167
0.0861214
0.0841103
0.0884919
0.121838
0.100441
0.0897008
0.0857213
0.0952121
0.0979477
0.102049
0.0878963
0.0916484
0.101346
0.0870727
0.0842367
0.0852859
0.131305
0.0970167
0.0899341
0.0882482
0.0937207
0.0833189
0.0946063
0.0893656
0.0943966
0.0838166
0.106088
0.0986918
0.0926859
0.0950472
0.0906091
0.0831774
0.0933171
0.132318
0.0899357
0.0828296
0.108145
0.0921004
0.0904794
0.0912572
0.0842638
0.0947837
0.087582
0.0832475
0.0929419
0.0984779
0.0847472
0.0954669
0.105387
0.120221
0.114851
0.0839649
0.0864651
0.130881
0.100505
0.100893
0.0838592
0.0849622
0.118212
0.0985893
0.100799
0.100306
0.138875
0.0950627
0.0816876
0.0862847
0.0926514
0.0977006
0.0948256
0.0889901
0.0821354
0.121441
0.092595
0.0918246
0.0824132
0.0882408
0.106017
0.132291
0.0933676
0.0954918
0.086674
0.0911489
0.100356
0.0959817
0.0935458
0.0894728
0.0830182
0.0848868
0.0959405
0.0986897
0.117946
0.107007
0.0934601
0.0945316
0.0964581
0.133455
0.0948794
0.088324
0.0863672
0.100555
0.0992773
0.0916497
0.0993721
0.0991896
0.11097
0.127585
0.11945
0.108912
0.0916851
0.0926431
0.0910351
0.132617
0.111454
0.1165
0.109776
0.0918705
0.124084
0.11785
0.105553
0.105833
0.112686
0.0937682
0.100379
0.139809
0.094668
0.120838
0.117981
0.0973672
0.106056
0.108577
0.0996614
0.101516
0.140634
0.104313
0.104532
0.117914
0.105055
0.104192
0.105279
0.109349
0.111133
0.105239
0.127556
0.108781
0.106147
0.108184
0.129091
0.112881
0.111411
0.123032
0.113496
0.136129
0.145897
0.135245
0.113594
0.135856
0.140038
0.137592
0.13504
0.132963
0.11322
0.10721
0.104975
0.111177
0.129993
0.152652
0.136916
0.129009
0.120188
0.113264
0.111068
0.113756
0.111012
0.106484
0.106681
0.123725
0.126941
0.161491
0.12783
0.112967
0.118353
0.11372
0.1299
0.130103
1
0.138005
0.132195
0.112173
0.108019
0.133291
0.12103
0.112836
0.155414
0.12014
0.111554
0.108972
0.119881
0.132656
0.14098
0.109573
0.109499
0.109987
0.115937
0.108602
0.112444
0.123527
0.140853
0.122048
0.111936
0.129127
0.13965
0.126335
0.129791
0.113246
0.110352
0.12593
0.114116
0.128989
0.140166
0.13301
0.113093
0.106895
0.109086
0.145994
0.119811
0.111194
0.110431
0.120755
0.112817
0.121975
0.108894
0.13853
0.129586
0.126211
0.122483
0.134646
0.109393
0.10484
0.15654
0.139161
0.1124
0.106188
0.113442
0.109853
0.119044
0.139062
0.131346
0.127324
0.11627
0.102072
0.102607
0.111793
0.116021
0.128954
0.153055
0.111725
0.118568
0.111957
0.13209
0.103218
0.0932821
0.0912138
0.0960609
0.0913299
0.117786
0.153355
0.133884
0.117009
0.225185
0.160155
0.147624
0.126483
0.111428
0.101425
0.129553
0.123722
0.137366
0.0986032
0.0905306
0.0874795
0.123056
0.154698
0.132919
0.117098
0.0880461
0.10023
0.111893
0.14324
0.118828
0.119767
0.131256
0.0901994
0.0935414
0.542969
0.130805
0.0853865
0.103801
0.115149
0.0837699
0.135398
0.167731
0.134501
0.112004
0.0876534
0.0830653
0.100621
0.190267
0.0962553
0.0837656
0.0850286
0.149921
0.231018
0.136435
0.180752
0.116478
0.263143
0.156523
0.101117
0.0831552
0.132702
0.164168
0.193196
0.133683
0.194508
0.171756
0.110989
0.0944808
0.0851856
0.084174
0.107534
0.224028
0.0877486
0.141061
0.141336
0.084533
0.104415
0.114547
0.138964
0.0964833
0.0897338
0.0881503
0.0889744
0.0958553
0.0926418
0.10419
0.113549
0.130964
0.127072
0.0906279
0.119901
0.0968302
0.092045
0.102404
0.114392
0.127224
0.130131
0.168697
0.148802
0.118053
0.105554
0.0934157
0.11041
0.146974
0.135145
0.122734
0.120533
0.0980021
0.0977156
0.118935
0.127603
0.146101
0.125052
0.110201
0.09568
0.0963124
0.168975
0.0964737
0.101708
0.125426
0.144446
0.167045
0.135081
0.134251
0.102977
0.202773
0.178239
0.102746
0.13395
0.124842
0.108273
0.126296
0.141813
0.108995
0.121699
0.108804
0.133305
0.126714
0.14734
0.131656
0.115493
0.136812
0.1169
0.118234
0.135353
0.129169
0.137866
0.155962
0.125892
0.122979
0.129306
0.139879
0.126117
0.141015
0.140058
0.129854
0.134086
0.126966
0.127778
0.129046
0.139042
0.132381
0.131806
0.129385
0.162689
0.144252
0.132861
0.139701
0.132202
0.146649
0.141823
0.13352
0.146661
0.135187
0.143167
0.145439
0.15085
0.139217
0.149843
0.688176
0.155235
0.168966
0.165952
0.154821
0.207934
0.195314
0.152484
0.153942
0.177598
0.179949
0.154855
0.137043
0.440138
0.155709
0.194454
0.182557
0.165516
0.163396
0.539592
0.497145
0.460925
0.21772
0.223462
0.234747
0.166952
0.23513
0.219069
0.23656
0.249895
0.283243
0.22393
0.169416
0.220661
0.16873
0.169393
0.208576
0.171584
0.171505
0.198614
0.176353
0.199129
0.187754
0.180799
0.190361
0.190219
0.192072
0.19154
0.200421
0.201447
0.204762
0.210174
0.213209
0.215946
0.216387
0.217598
0.23693
0.51052
0.559577
0.222425
0.231853
0.288583
0.249248
0.177621
0.198804
0.333923
0.162484
0.284348
0.116758
0.13405
0.357489
0.499552
0.152754
0.303209
0.181164
0.174182
0.330786
0.287782
0.257846
0.272834
0.222041
0.225752
0.207877
0.204274
0.203421
0.206925
0.203389
0.208751
0.184324
0.185214
0.22084
0.215142
0.182256
0.225765
0.207367
0.238477
0.279437
0.175901
0.227821
0.303705
0.208426
0.291397
0.254915
0.221365
0.181445
0.247506
0.201143
0.247773
0.184328
0.263824
0.183672
0.219415
0.222383
0.259504
0.220947
0.238078
0.24256
0.208831
0.271735
0.263742
0.229461
0.207668
0.189904
0.30638
0.308715
0.221977
0.192286
0.230335
0.195523
0.283449
0.255454
0.181485
0.246018
0.202541
0.213247
0.235631
0.234609
0.168131
0.155301
0.220616
0.16304
0.240638
0.166812
0.232161
0.173979
0.155433
0.152764
0.14542
0.13951
0.135153
0.134355
0.150332
0.150987
0.148013
0.139287
0.200335
0.12531
0.219089
0.239801
0.154172
0.146027
0.126991
0.120004
0.156341
0.186441
0.156255
0.117119
0.1238
0.213892
0.133645
0.156265
0.219464
0.218849
0.114991
0.114563
0.17718
0.134569
0.124564
0.140531
0.225994
0.114594
0.461951
0.171012
0.202657
0.124727
0.244877
0.248222
0.234495
0.167886
0.19095
0.117039
0.150121
0.154344
0.164664
0.178707
0.118496
0.231136
0.138417
0.124924
0.131595
0.170752
0.159282
0.168066
0.131817
0.154089
0.154593
0.14829
0.145462
0.134336
0.219896
0.148382
0.14759
0.155539
0.130977
0.135602
0.143116
0.13824
0.135528
0.132465
0.17422
0.279524
0.158973
0.151006
0.14922
0.199529
0.152652
0.160121
0.144087
0.140113
0.140949
0.145553
0.134825
0.157548
0.15857
0.157626
0.153374
0.177298
0.143883
0.177937
0.157077
0.151123
0.15121
0.217555
0.181636
0.195761
0.150694
0.200573
0.161363
0.151489
0.158862
0.21469
0.22638
0.229463
0.21036
0.226414
0.15427
0.165357
0.152564
0.144356
0.237352
0.213771
0.161558
0.178999
0.203266
0.143626
0.136391
0.145786
0.203931
0.207939
0.141068
0.133698
0.162689
0.155752
0.135333
0.146311
0.192695
0.157722
0.13375
0.16775
0.182347
0.152328
0.152822
0.152586
0.180394
0.14176
0.153896
0.133144
0.130001
0.168013
0.125066
0.138265
0.148871
0.165568
0.160331
0.104217
0.138215
0.137673
0.138368
0.133668
0.140963
0.155734
0.110476
0.127598
0.133001
0.130858
0.165736
0.0997922
0.134525
0.15793
0.144678
0.162406
0.122208
0.149083
0.126836
0.125986
0.110153
0.136212
0.138453
0.139966
0.134188
0.168783
0.203027
0.201868
0.164032
0.178768
0.14655
0.165319
0.150945
0.159523
0.150879
0.138329
0.182296
0.172058
0.151789
0.105649
0.147415
0.154901
0.187034
0.213414
0.173128
0.153932
0.174018
0.149619
0.152778
0.12814
0.173719
0.163168
0.152496
0.152359
0.154094
0.14765
0.14989
0.126595
0.131916
0.156153
0.198133
0.133499
0.159163
0.176012
0.152069
0.146728
0.129656
0.132604
0.137361
0.241506
0.126871
0.171219
0.16482
0.171035
0.130061
0.135795
0.135321
0.13773
0.126797
0.11792
0.118352
0.188449
0.301638
0.182757
0.131016
0.126033
0.12244
0.130921
0.127928
0.123338
0.120662
0.117763
0.125153
0.149017
0.166704
0.152048
0.143233
0.131233
0.16582
0.117498
0.120582
0.12428
0.118128
0.134237
0.169761
0.250727
0.134238
0.129503
0.189213
0.115619
0.120314
0.12403
0.124838
0.121787
0.203347
0.188145
0.153823
0.159348
0.113602
0.122773
0.116049
0.117264
0.211097
0.167168
0.179032
0.182707
0.149842
0.119275
0.115972
0.118447
0.122652
0.123324
0.140822
0.155818
0.185617
0.204301
0.145184
0.108045
0.116061
0.119155
0.115829
0.114589
0.299558
0.264912
0.210179
0.165901
0.142465
0.138435
0.116254
0.124558
0.126853
0.140969
0.245566
0.138432
0.106925
0.119569
0.121458
0.120894
0.120054
0.158346
0.154498
0.154805
0.110358
0.111089
0.132362
0.135771
0.150384
0.1592
0.147522
0.149347
0.132957
0.118547
0.127271
0.152684
0.137908
0.115508
0.113173
0.127693
0.133843
0.136821
0.154469
0.129988
0.128989
0.157255
0.145429
0.13561
0.141508
0.145565
0.155489
0.124295
0.124284
0.128694
0.118478
0.153757
0.159236
0.15812
0.147322
0.127451
0.223338
0.208682
0.197721
0.172344
0.165527
0.117946
0.132144
0.12088
0.227747
0.227316
0.142877
0.148705
0.151197
0.1387
0.137697
0.138201
0.224881
0.189373
0.178621
0.13888
0.134768
0.120025
0.147069
0.115387
0.127729
0.142157
0.184564
0.141422
0.115568
0.11299
0.136233
0.118982
0.129142
0.156607
0.146141
0.141617
0.138757
0.139968
0.122932
0.117876
0.119587
0.221949
0.110941
0.110727
0.117327
0.121139
0.109424
0.116969
0.193524
0.204869
0.214383
0.105814
0.118085
0.120065
0.111445
0.11843
0.12761
0.121424
0.114721
0.18403
0.0849281
0.10244
0.102546
0.10186
0.100846
0.100459
0.103823
0.121295
0.140323
0.107092
0.17502
0.0772839
0.0885596
0.103719
0.106881
0.113151
0.114733
0.109233
0.114402
0.0888552
0.0946191
0.0967022
0.0970472
0.135252
0.173446
0.0901722
0.0954628
0.0952327
0.094687
0.127081
0.115834
0.0885755
0.092618
0.116476
0.167973
0.0878666
0.0896798
0.0931511
0.0944041
0.0938862
0.134001
0.108029
0.10865
0.113702
0.110501
0.109694
0.07503
0.0805373
0.0835579
0.0876603
0.0940319
0.0926068
0.0947682
0.0987929
0.137974
0.112026
0.110311
0.113365
0.115357
0.116019
0.106786
0.131791
0.119109
0.0767199
0.0953889
0.0958962
0.0957169
0.0943372
0.12782
0.108834
0.131671
0.120605
0.162971
0.0691029
0.084247
0.0888154
0.0939176
0.0945524
0.0920495
0.12512
0.13079
0.130874
0.0725409
0.0932589
0.0983494
0.0934014
0.0964101
0.130813
0.130765
0.121284
0.14965
0.0811609
0.0855633
0.101433
0.101264
0.0942641
0.126566
0.12911
0.12601
0.089819
0.0999199
0.10247
0.116345
0.10185
0.119619
0.121359
0.119338
0.118117
0.118631
0.141752
0.0715706
0.077646
0.0832508
0.0653546
0.08105
0.108133
0.0992585
0.111107
0.129876
0.1026
0.12244
0.138193
0.138277
0.148604
0.100968
0.0980889
0.135422
0.0962558
0.0962569
0.136667
0.0931736
0.0938611
0.116517
0.114587
0.117044
0.0911258
0.0957772
0.093166
0.110655
0.0890675
0.09151
0.096396
0.112566
0.126552
0.142278
0.157952
0.17509
0.182351
0.183099
0.177772
0.168702
0.158525
0.149429
0.142879
0.138776
0.139144
0.140533
0.140885
0.140281
0.138573
0.133838
0.127606
0.118854
0.109024
0.0964376
0.0927778
0.0913282
0.0930415
0.0982957
0.103821
0.113983
0.120621
0.124353
0.124238
0.122036
0.119413
0.115741
0.112357
0.109467
0.107917
0.108419
0.113849
0.119671
0.123164
0.124525
0.122588
0.117034
0.109813
