# vtk DataFile Version 1.0
Unstructured Grid Example
ASCII

DATASET UNSTRUCTURED_GRID
POINTS 1726 float
148 68 0
41 277 0
135 335 0
319 86 0
184 13 0
404 1 0
70 3 0
180 3 0
137 100 0
82 34 0
36 26 0
131 230 0
77 513 0
195 393 0
162 354 0
133 290 0
215 340 0
197 382 0
265 426 0
224 319 0
243 282 0
512 253 0
224 268 0
215 249 0
228 30 0
331 76 0
23 26 0
0 50 0
34 49 0
37 49 0
45 23 0
127 3 0
154 1 0
168 3 0
142 18 0
55 5 0
132 86 0
145 72 0
157 113 0
136 236 0
134 229 0
124 169 0
8 51 0
1 52 0
0 112 0
0 139 0
0 266 0
133 258 0
150 303 0
141 279 0
135 302 0
148 379 0
46 513 0
152 389 0
151 366 0
152 340 0
166 409 0
171 412 0
182 425 0
178 400 0
173 398 0
178 382 0
178 370 0
155 364 0
170 358 0
184 356 0
208 248 0
215 245 0
216 269 0
206 282 0
201 270 0
197 355 0
186 396 0
208 513 0
220 376 0
215 350 0
234 472 0
237 513 0
266 513 0
512 508 0
265 417 0
238 280 0
230 267 0
241 201 0
512 245 0
512 155 0
512 102 0
340 72 0
319 66 0
279 99 0
270 130 0
264 149 0
262 154 0
204 65 0
263 70 0
269 127 0
333 35 0
328 43 0
287 9 0
313 1 0
352 1 0
365 42 0
396 46 0
390 49 0
400 48 0
512 21 0
443 1 0
0 6 0
18 1 0
30 12 0
6 16 0
1 15 0
0 22 0
0 28 0
0 31 0
21 18 0
8 17 0
36 16 0
31 21 0
63 26 0
55 14 0
105 3 0
114 3 0
80 3 0
32 1 0
64 1 0
103 1 0
125 1 0
120 3 0
144 12 0
149 7 0
152 3 0
173 3 0
206 1 0
189 13 0
159 3 0
156 3 0
144 16 0
162 26 0
187 28 0
184 30 0
170 26 0
139 17 0
129 17 0
126 17 0
114 29 0
117 31 0
133 90 0
134 93 0
139 107 0
136 82 0
158 61 0
163 44 0
166 45 0
180 63 0
168 47 0
159 58 0
168 111 0
184 109 0
185 113 0
163 112 0
143 246 0
137 191 0
137 188 0
135 184 0
135 215 0
133 246 0
130 227 0
31 106 0
20 59 0
101 82 0
105 63 0
109 49 0
107 45 0
79 31 0
106 42 0
102 51 0
0 81 0
11 56 0
0 34 0
0 41 0
0 68 0
0 128 0
0 123 0
12 142 0
0 173 0
0 178 0
0 227 0
0 256 0
0 293 0
0 306 0
0 271 0
0 261 0
0 246 0
133 254 0
138 304 0
137 293 0
136 258 0
147 328 0
150 316 0
157 339 0
155 329 0
155 341 0
140 340 0
139 328 0
131 321 0
138 337 0
0 338 0
143 360 0
146 352 0
149 382 0
0 428 0
0 437 0
0 456 0
0 494 0
15 513 0
150 513 0
19 513 0
153 378 0
153 385 0
161 398 0
161 381 0
157 376 0
160 368 0
160 365 0
153 363 0
155 354 0
157 352 0
176 383 0
179 384 0
176 399 0
170 391 0
165 400 0
175 416 0
177 513 0
181 421 0
178 415 0
179 406 0
190 465 0
193 467 0
201 474 0
195 470 0
199 469 0
188 434 0
183 449 0
184 423 0
184 383 0
185 427 0
202 380 0
202 364 0
198 365 0
200 366 0
198 368 0
193 372 0
191 382 0
162 370 0
196 367 0
197 370 0
184 353 0
180 346 0
164 345 0
179 343 0
192 329 0
195 271 0
199 353 0
200 363 0
204 355 0
207 352 0
200 349 0
210 250 0
208 257 0
217 237 0
214 236 0
216 225 0
226 214 0
231 216 0
225 229 0
222 225 0
217 247 0
222 260 0
228 272 0
233 280 0
232 275 0
231 281 0
222 281 0
221 272 0
219 257 0
218 260 0
221 269 0
214 282 0
218 282 0
219 362 0
217 292 0
210 317 0
210 377 0
210 386 0
214 513 0
210 373 0
219 367 0
225 304 0
221 339 0
233 387 0
229 327 0
227 320 0
234 302 0
222 294 0
230 292 0
234 291 0
237 282 0
262 427 0
264 422 0
265 431 0
264 445 0
260 445 0
243 471 0
247 513 0
248 466 0
251 464 0
258 447 0
353 513 0
271 513 0
411 513 0
485 513 0
512 513 0
474 513 0
305 513 0
296 513 0
512 505 0
512 482 0
264 410 0
512 319 0
260 269 0
254 403 0
256 412 0
248 407 0
239 396 0
245 274 0
252 272 0
253 275 0
250 256 0
246 265 0
240 255 0
245 191 0
329 201 0
500 207 0
507 209 0
499 211 0
512 221 0
512 218 0
512 214 0
512 107 0
512 125 0
413 83 0
459 85 0
512 75 0
408 48 0
405 42 0
392 42 0
402 43 0
393 46 0
388 47 0
390 44 0
384 43 0
380 44 0
367 47 0
374 76 0
380 74 0
386 80 0
380 78 0
363 161 0
339 86 0
363 70 0
333 72 0
334 79 0
322 86 0
252 184 0
246 106 0
256 92 0
286 98 0
310 94 0
268 61 0
251 67 0
257 42 0
259 44 0
270 53 0
297 48 0
270 56 0
301 57 0
307 46 0
362 45 0
327 31 0
321 27 0
318 28 0
317 31 0
314 32 0
305 30 0
241 39 0
216 26 0
234 29 0
279 29 0
256 24 0
224 3 0
208 3 0
267 1 0
275 1 0
281 1 0
292 9 0
294 1 0
308 1 0
305 1 0
330 33 0
377 35 0
349 36 0
341 36 0
339 38 0
343 41 0
334 41 0
365 39 0
343 38 0
352 38 0
399 36 0
488 41 0
512 16 0
512 6 0
489 1 0
501 1 0
498 1 0
483 1 0
396 1 0
475 1 0
504 1 0
0 2 0
0 10 0
2 1 0
9 1 0
5 1 0
21 1 0
26 1 0
15 1 0
12 1 0
10 10 0
12 11 0
18 12 0
27 12 0
24 14 0
15 13 0
11 13 0
8 11 0
4 11 0
0 13 0
4 14 0
11 17 0
14 15 0
13 19 0
4 17 0
0 17 0
5 22 0
2 23 0
15 23 0
7 21 0
11 20 0
25 19 0
19 21 0
29 23 0
27 21 0
29 20 0
27 18 0
16 18 0
18 17 0
20 15 0
26 15 0
30 16 0
33 16 0
39 17 0
37 18 0
31 18 0
33 20 0
32 23 0
35 23 0
39 23 0
36 20 0
48 17 0
49 22 0
53 22 0
60 22 0
58 17 0
54 17 0
41 16 0
43 15 0
50 15 0
58 14 0
62 8 0
62 3 0
59 3 0
58 6 0
60 7 0
39 14 0
37 13 0
33 13 0
47 13 0
54 3 0
43 1 0
29 1 0
36 1 0
38 1 0
40 1 0
47 1 0
50 1 0
53 1 0
58 1 0
61 1 0
78 1 0
98 3 0
95 3 0
92 3 0
89 3 0
67 3 0
76 3 0
83 3 0
101 3 0
86 3 0
110 3 0
123 3 0
130 3 0
133 3 0
136 3 0
141 3 0
117 3 0
107 1 0
112 1 0
140 1 0
148 1 0
143 1 0
151 1 0
157 1 0
166 1 0
189 1 0
193 1 0
201 1 0
185 1 0
178 1 0
187 3 0
195 3 0
198 3 0
191 3 0
183 3 0
176 3 0
170 1 0
162 1 0
164 3 0
149 3 0
142 5 0
142 8 0
143 10 0
145 5 0
144 3 0
147 6 0
151 9 0
196 12 0
193 12 0
155 10 0
181 14 0
199 12 0
178 14 0
174 15 0
171 17 0
168 16 0
164 15 0
157 12 0
162 13 0
143 24 0
111 23 0
108 22 0
105 22 0
118 18 0
135 18 0
132 18 0
123 17 0
111 17 0
108 17 0
114 18 0
103 15 0
73 3 0
64 10 0
66 12 0
69 16 0
71 18 0
99 17 0
101 20 0
74 23 0
72 21 0
63 23 0
120 25 0
123 24 0
123 33 0
120 32 0
110 27 0
111 46 0
112 49 0
114 47 0
127 34 0
130 34 0
139 37 0
143 39 0
152 41 0
149 40 0
146 39 0
136 35 0
133 35 0
137 24 0
138 27 0
141 26 0
156 43 0
160 44 0
175 28 0
167 26 0
173 26 0
179 26 0
192 27 0
197 28 0
189 30 0
182 28 0
170 49 0
171 52 0
172 55 0
172 62 0
170 59 0
166 57 0
169 55 0
163 57 0
163 61 0
166 62 0
143 68 0
151 71 0
151 68 0
154 67 0
157 64 0
192 63 0
201 98 0
199 100 0
198 103 0
196 108 0
193 115 0
195 111 0
191 117 0
189 120 0
187 117 0
177 111 0
180 110 0
173 111 0
151 114 0
146 115 0
143 114 0
119 145 0
135 97 0
138 104 0
141 111 0
141 76 0
143 74 0
141 70 0
138 79 0
134 84 0
113 110 0
112 107 0
109 95 0
110 98 0
111 104 0
114 118 0
114 114 0
115 122 0
117 139 0
116 133 0
113 127 0
109 92 0
108 89 0
100 78 0
103 85 0
105 88 0
41 108 0
38 109 0
99 75 0
99 72 0
99 69 0
94 64 0
93 60 0
31 57 0
36 58 0
93 56 0
97 62 0
100 66 0
102 64 0
100 60 0
104 60 0
99 51 0
97 53 0
91 42 0
104 44 0
106 50 0
101 41 0
106 26 0
98 41 0
86 42 0
94 42 0
55 24 0
58 24 0
51 25 0
48 25 0
43 25 0
41 27 0
76 27 0
83 39 0
76 30 0
34 52 0
25 55 0
16 55 0
18 52 0
20 55 0
31 51 0
23 50 0
25 24 0
19 25 0
20 50 0
16 50 0
4 50 0
2 48 0
0 25 0
0 37 0
0 45 0
4 53 0
10 53 0
14 53 0
6 56 0
1 55 0
0 75 0
0 86 0
0 92 0
0 71 0
0 58 0
13 58 0
28 58 0
17 58 0
0 61 0
0 64 0
9 143 0
10 140 0
7 146 0
4 147 0
0 149 0
0 135 0
0 132 0
0 106 0
0 99 0
0 119 0
0 144 0
0 155 0
0 159 0
0 162 0
0 168 0
0 187 0
0 208 0
0 220 0
0 215 0
0 202 0
0 193 0
0 182 0
58 215 0
125 162 0
84 161 0
123 156 0
13 152 0
10 153 0
0 152 0
10 150 0
122 151 0
125 166 0
127 172 0
131 207 0
132 178 0
129 174 0
135 181 0
138 185 0
134 196 0
134 199 0
133 202 0
131 216 0
139 223 0
137 227 0
136 224 0
133 225 0
130 234 0
130 219 0
130 210 0
129 214 0
130 222 0
136 246 0
138 260 0
138 248 0
139 245 0
139 234 0
141 258 0
148 257 0
147 267 0
145 259 0
145 269 0
144 281 0
146 279 0
148 281 0
148 291 0
143 291 0
140 291 0
138 279 0
135 280 0
137 282 0
136 290 0
134 277 0
132 282 0
133 267 0
134 274 0
134 271 0
135 261 0
134 238 0
132 243 0
133 250 0
133 264 0
132 240 0
131 237 0
0 234 0
0 241 0
0 251 0
0 279 0
0 275 0
0 283 0
131 287 0
130 292 0
0 288 0
0 315 0
0 326 0
129 304 0
0 300 0
129 296 0
130 301 0
130 309 0
133 324 0
132 313 0
131 318 0
0 384 0
0 417 0
0 445 0
0 471 0
0 463 0
0 407 0
0 355 0
0 347 0
0 367 0
0 397 0
0 485 0
0 480 0
0 489 0
0 501 0
0 504 0
0 507 0
0 511 0
4 513 0
11 513 0
8 513 0
88 513 0
97 513 0
106 513 0
121 513 0
131 513 0
69 513 0
36 513 0
23 513 0
29 513 0
56 513 0
136 341 0
137 344 0
142 349 0
140 351 0
139 347 0
141 354 0
141 357 0
144 513 0
144 365 0
143 352 0
145 369 0
147 372 0
150 377 0
150 373 0
148 364 0
149 353 0
146 361 0
145 349 0
148 340 0
150 350 0
150 338 0
149 326 0
145 326 0
142 328 0
144 338 0
141 337 0
134 331 0
133 316 0
135 327 0
138 325 0
138 314 0
136 316 0
133 304 0
134 293 0
135 313 0
142 304 0
143 315 0
140 316 0
146 314 0
145 303 0
145 293 0
153 375 0
155 379 0
156 386 0
159 380 0
161 377 0
163 378 0
171 380 0
175 380 0
174 382 0
164 381 0
165 389 0
174 390 0
176 391 0
173 392 0
167 390 0
163 388 0
160 388 0
158 387 0
155 389 0
159 390 0
153 392 0
162 392 0
158 397 0
156 399 0
154 396 0
157 404 0
156 513 0
161 408 0
160 405 0
160 401 0
170 401 0
166 513 0
171 513 0
173 414 0
170 409 0
173 401 0
167 401 0
166 398 0
166 392 0
169 398 0
178 419 0
182 418 0
188 431 0
185 435 0
183 438 0
183 445 0
182 513 0
187 454 0
184 452 0
183 442 0
189 462 0
188 513 0
196 513 0
200 513 0
201 471 0
189 459 0
189 456 0
189 451 0
189 418 0
190 438 0
201 396 0
199 394 0
191 395 0
189 397 0
198 398 0
185 399 0
176 413 0
178 390 0
181 398 0
188 394 0
190 384 0
182 384 0
181 382 0
187 383 0
193 375 0
196 373 0
199 383 0
194 384 0
200 381 0
199 378 0
201 377 0
194 370 0
189 366 0
187 364 0
189 363 0
191 362 0
195 353 0
198 351 0
192 356 0
194 357 0
190 359 0
186 354 0
186 351 0
185 348 0
184 350 0
182 355 0
175 358 0
180 356 0
186 366 0
177 372 0
174 360 0
174 371 0
172 369 0
168 367 0
168 368 0
171 371 0
167 370 0
156 368 0
154 366 0
158 364 0
162 367 0
159 356 0
151 362 0
152 353 0
154 351 0
157 355 0
159 353 0
163 357 0
172 359 0
167 358 0
165 356 0
170 347 0
174 346 0
159 342 0
161 345 0
166 347 0
159 333 0
154 338 0
153 327 0
154 316 0
157 331 0
152 314 0
151 293 0
151 280 0
151 256 0
153 291 0
154 302 0
153 305 0
156 314 0
156 310 0
156 304 0
189 282 0
191 332 0
188 333 0
186 335 0
183 335 0
183 338 0
177 347 0
187 347 0
189 345 0
191 342 0
194 343 0
192 344 0
198 348 0
200 345 0
196 342 0
196 338 0
194 327 0
194 340 0
193 269 0
197 269 0
200 259 0
211 237 0
219 225 0
219 251 0
218 241 0
212 247 0
210 259 0
203 259 0
214 259 0
[...]
CELL_DATA 3109
COLOR_SCALARS ColorSpace 1
0.271895
0.335948
0.311111
0.363399
0.401307
0.30719
0.315033
0.449673
0.286275
0.290196
0.318954
0.454902
0.309804
0.333333
0.296732
0.338562
0.364706
0.30719
0.313725
0.284967
0.322876
0.257516
0.312418
0.462745
0.273203
0.311111
0.278431
0.330719
0.309804
0.326797
0.313725
0.439216
0.305882
0.915033
0.313725
0.299346
0.281046
0.303268
0.334641
0.239216
0.277124
0.352941
0.380392
0.296732
0.35817
0.334641
0.31634
0.346405
0.329412
0.286275
0.364706
0.39085
0.691503
0.686275
0.28366
0.326797
0.389542
0.335948
0.335948
0.271895
0.260131
0.237908
0.383007
0.393464
0.315033
0.342484
0.333333
0.354248
0.288889
0.32549
0.25098
0.420915
0.533333
0.366013
0.324183
0.491503
0.416993
0.48366
0.29281
0.448366
0.298039
0.403922
0.317647
0.317647
0.383007
0.311111
0.453595
0.305882
0.535948
0.48366
0.318954
0.324183
0.311111
0.303268
0.342484
0.572549
0.317647
0.379085
0.277124
0.366013
0.309804
0.294118
0.341176
0.300654
0.352941
0.321569
0.346405
0.300654
0.36732
0.295425
0.308497
0.305882
0.287582
0.312418
0.303268
0.281046
0.28366
0.308497
0.260131
0.287582
0.477124
0.28366
0.329412
0.313725
0.288889
0.282353
0.267974
0.369935
0.308497
0.315033
0.333333
0.278431
0.315033
0.309804
0.342484
0.317647
0.332026
0.303268
0.299346
0.32549
0.301961
0.324183
0.32549
0.326797
0.416993
0.295425
0.376471
0.366013
0.347712
0.377778
0.311111
0.322876
0.311111
0.345098
0.407843
0.372549
0.346405
0.175163
0.337255
0.39085
0.373856
0.304575
0.324183
0.299346
0.322876
0.359477
0.471895
0.418301
0.776471
0.317647
0.249673
0.360784
0.300654
0.298039
0.426144
0.34902
0.369935
0.70719
0.4
0.396078
0.496732
0.330719
0.696732
0.479739
0.311111
0.71634
0.288889
0.305882
0.334641
0.252288
0.252288
0.415686
0.320261
0.687582
0.309804
0.322876
0.328105
0.284967
0.320261
0.338562
0.373856
0.477124
0.270588
0.354248
0.686275
0.256209
0.696732
0.28366
0.337255
0.281046
0.458824
0.682353
0.445752
0.447059
0.254902
0.31634
0.288889
0.296732
0.271895
0.68366
0.454902
0.290196
0.337255
0.341176
0.45098
0.278431
0.68366
0.273203
0.449673
0.373856
0.341176
0.281046
0.355556
0.320261
0.295425
0.299346
0.308497
0.31634
0.334641
0.333333
0.301961
0.287582
0.345098
0.405229
0.36732
0.264052
0.372549
0.347712
0.262745
0.333333
0.414379
0.287582
0.243137
0.467974
0.247059
0.281046
0.295425
0.211765
0.226144
0.318954
0.334641
0.279739
0.286275
0.335948
0.324183
0.275817
0.381699
0.345098
0.245752
0.215686
0.398693
0.401307
0.197386
0.265359
0.326797
0.287582
0.240523
0.312418
0.31634
0.333333
0.261438
0.350327
0.223529
0.359477
0.296732
0.320261
0.363399
0.416993
0.444444
0.515033
0.381699
0.444444
0.30719
0.326797
0.386928
0.298039
0.329412
0.27451
0.362092
0.332026
0.345098
0.27451
0.372549
0.324183
0.273203
0.240523
0.321569
0.356863
0.467974
0.436601
0.420915
0.415686
0.34902
0.430065
0.380392
0.383007
0.524183
0.420915
0.388235
0.515033
0.533333
0.533333
0.515033
0.541176
0.538562
0.484967
0.34902
0.436601
0.338562
0.322876
0.277124
0.286275
0.322876
0.386928
0.301961
0.321569
0.308497
0.321569
0.326797
0.324183
0.322876
0.286275
0.311111
0.322876
0.333333
0.295425
0.330719
0.298039
0.439216
0.39085
0.36732
0.36732
0.505882
0.509804
0.322876
0.284967
0.343791
0.88366
0.376471
0.797386
0.84183
0.887582
0.870588
0.869281
0.304575
0.422222
0.315033
0.303268
0.29281
0.347712
0.29281
0.282353
0.333333
0.300654
0.329412
0.313725
0.295425
0.286275
0.299346
0.295425
0.335948
0.301961
0.311111
0.298039
0.330719
0.317647
0.300654
0.288889
0.304575
0.321569
0.324183
0.298039
0.512418
0.29281
0.439216
0.312418
0.526797
0.312418
0.388235
0.313725
0.350327
0.411765
0.298039
0.430065
0.532026
0.320261
0.320261
0.326797
0.533333
0.346405
0.52549
0.705882
0.315033
0.350327
0.385621
0.351634
0.556863
0.512418
0.309804
0.339869
0.286275
0.277124
0.313725
0.342484
0.312418
0.295425
0.279739
0.317647
0.317647
0.305882
0.313725
0.290196
0.311111
0.298039
0.267974
0.271895
0.31634
0.298039
0.31634
0.303268
0.299346
0.309804
0.290196
0.309804
0.296732
0.298039
0.269281
0.315033
0.343791
0.326797
0.30719
0.324183
0.321569
0.308497
0.31634
0.287582
0.320261
0.328105
0.282353
0.290196
0.315033
0.282353
0.320261
0.301961
0.277124
0.31634
0.281046
0.270588
0.311111
0.312418
0.288889
0.30719
0.303268
0.303268
0.264052
0.295425
0.300654
0.294118
0.28366
0.296732
0.311111
0.296732
0.312418
0.420915
0.332026
0.245752
0.326797
0.271895
0.300654
0.337255
0.335948
0.318954
0.309804
0.247059
0.267974
0.291503
0.318954
0.328105
0.300654
0.318954
0.277124
0.29281
0.288889
0.308497
0.300654
0.309804
0.298039
0.284967
0.299346
0.305882
0.295425
0.334641
0.309804
0.318954
0.298039
0.312418
0.299346
0.275817
0.309804
0.308497
0.715033
0.511111
0.282353
0.298039
0.31634
0.346405
0.311111
0.287582
0.315033
0.262745
0.309804
0.318954
0.332026
0.320261
0.34902
0.304575
0.354248
0.332026
0.309804
0.30719
0.287582
0.322876
0.375163
0.265359
0.332026
0.362092
0.308497
0.30719
0.32549
0.31634
0.326797
0.30719
0.718954
0.309804
0.309804
0.311111
0.513725
0.31634
0.535948
0.312418
0.318954
0.515033
0.312418
0.342484
0.329412
0.715033
0.91634
0.917647
0.718954
0.542484
0.917647
0.91634
0.312418
0.750327
0.750327
0.318954
0.343791
0.309804
0.308497
0.308497
0.317647
0.294118
0.304575
0.315033
0.339869
0.405229
0.298039
0.334641
0.39085
0.301961
0.388235
0.305882
0.282353
0.288889
0.34902
0.299346
0.275817
0.301961
0.256209
0.426144
0.764706
0.453595
0.534641
0.776471
0.345098
0.603922
0.72549
0.623529
0.776471
0.776471
0.776471
0.356863
0.50719
0.764706
0.764706
0.377778
0.354248
0.415686
0.334641
0.449673
0.337255
0.345098
0.330719
0.364706
0.318954
0.368627
0.347712
0.36732
0.318954
0.275817
0.343791
0.269281
0.354248
0.337255
0.339869
0.379085
0.415686
0.375163
0.376471
0.381699
0.419608
0.386928
0.389542
0.764706
0.341176
0.269281
0.366013
0.415686
0.372549
0.377778
0.245752
0.312418
0.258824
0.258824
0.245752
0.375163
0.226144
0.270588
0.23268
0.257516
0.287582
0.201307
0.279739
0.337255
0.45098
0.394771
0.258824
0.277124
0.381699
0.364706
0.347712
0.369935
0.339869
0.410458
0.328105
0.376471
0.30719
0.420915
0.352941
0.346405
0.351634
0.322876
0.324183
0.299346
0.342484
0.295425
0.576471
0.346405
0.350327
0.566013
0.31634
0.362092
0.35817
0.501961
0.356863
0.330719
0.43268
0.301961
0.691503
0.351634
0.371242
0.298039
0.296732
0.278431
0.364706
0.379085
0.471895
0.471895
0.383007
0.346405
0.273203
0.718954
0.304575
0.352941
0.265359
0.572549
0.776471
0.579085
0.247059
0.681046
0.29281
0.70719
0.281046
0.730719
0.335948
0.27451
0.320261
0.335948
0.262745
0.368627
0.330719
0.32549
0.428758
0.715033
0.287582
0.301961
0.356863
0.715033
0.32549
0.332026
0.592157
0.368627
0.704575
0.917647
0.917647
0.917647
0.704575
0.694118
0.262745
0.917647
0.773856
0.499346
0.512418
0.317647
0.687582
0.773856
0.335948
0.696732
0.320261
0.345098
0.698039
0.715033
0.467974
0.715033
0.312418
0.495425
0.359477
0.494118
0.338562
0.354248
0.332026
0.284967
0.295425
0.305882
0.320261
0.556863
0.281046
0.345098
0.261438
0.295425
0.305882
0.326797
0.284967
0.290196
0.329412
0.312418
0.383007
0.249673
0.270588
0.252288
0.28366
0.298039
0.321569
0.375163
0.337255
0.321569
0.270588
0.347712
0.28366
0.34902
0.318954
0.35817
0.252288
0.355556
0.396078
0.28366
0.28366
0.328105
0.318954
0.330719
0.31634
0.304575
0.308497
0.30719
0.277124
0.313725
0.32549
0.291503
0.355556
0.298039
0.324183
0.303268
0.303268
0.326797
0.34902
0.504575
0.321569
0.34902
0.337255
0.338562
0.332026
0.298039
0.40915
0.354248
0.322876
0.389542
0.30719
0.25098
0.311111
0.334641
0.282353
0.380392
0.29281
0.338562
0.279739
0.30719
0.341176
0.345098
0.333333
0.320261
0.34902
0.360784
0.287582
0.294118
0.296732
0.299346
0.321569
0.34902
0.324183
0.303268
0.284967
0.284967
0.294118
0.347712
0.54902
0.704575
0.368627
0.369935
0.326797
0.341176
0.282353
0.324183
0.282353
0.701961
0.500654
0.301961
0.352941
0.296732
0.739869
0.698039
0.739869
0.495425
0.499346
0.715033
0.682353
0.715033
0.584314
0.54902
0.704575
0.535948
0.471895
0.453595
0.453595
0.261438
0.458824
0.321569
0.688889
0.271895
0.458824
0.240523
0.287582
0.478431
0.467974
0.461438
0.460131
0.295425
0.45098
0.266667
0.460131
0.240523
0.686275
0.335948
0.346405
0.447059
0.445752
0.267974
0.444444
0.249673
0.681046
0.337255
0.448366
0.498039
0.332026
0.328105
0.444444
0.682353
0.449673
0.686275
0.494118
0.452288
0.688889
0.454902
0.460131
0.462745
0.286275
0.688889
0.449673
0.684967
0.688889
0.317647
0.300654
0.695425
0.469281
0.470588
0.464052
0.32549
0.456209
0.244444
0.449673
0.281046
0.68366
0.457516
0.688889
0.342484
0.457516
0.257516
0.254902
0.308497
0.454902
0.303268
0.354248
0.317647
0.305882
0.31634
0.347712
0.690196
0.298039
0.318954
0.345098
0.458824
0.35817
0.335948
0.359477
0.281046
0.338562
0.44183
0.376471
0.305882
0.247059
0.360784
0.315033
0.303268
0.240523
0.338562
0.245752
0.311111
0.339869
0.355556
0.334641
0.424837
0.261438
0.366013
0.360784
0.261438
0.411765
0.371242
0.351634
0.335948
0.273203
0.309804
0.260131
0.296732
0.235294
0.271895
0.363399
0.244444
0.377778
0.414379
0.339869
0.270588
0.299346
0.330719
0.328105
0.35817
0.257516
0.43268
0.366013
0.343791
0.281046
0.47451
0.346405
0.318954
0.281046
0.322876
0.282353
0.364706
0.318954
0.324183
0.284967
0.315033
0.240523
0.287582
0.352941
0.407843
0.334641
0.377778
0.394771
0.343791
0.322876
0.377778
0.364706
0.362092
0.4
0.318954
0.342484
0.249673
0.296732
0.312418
0.267974
0.299346
0.360784
0.261438
0.298039
0.228758
0.414379
0.245752
0.223529
0.352941
0.243137
0.265359
0.222222
0.279739
0.240523
0.281046
0.271895
0.219608
0.218301
0.181699
0.233987
0.346405
0.295425
0.271895
0.29281
0.30719
0.332026
0.377778
0.330719
0.270588
0.372549
0.247059
0.228758
0.328105
0.194771
0.30719
0.317647
0.270588
0.363399
0.30719
0.308497
0.350327
0.335948
0.397386
0.347712
0.322876
0.36732
0.359477
0.355556
0.324183
0.379085
0.343791
0.247059
0.27451
0.334641
0.275817
0.364706
0.329412
0.257516
0.338562
0.317647
0.40915
0.335948
0.291503
0.291503
0.295425
0.363399
0.236601
0.321569
0.262745
0.359477
0.317647
0.31634
0.356863
0.381699
0.379085
0.245752
0.36732
0.360784
0.308497
0.282353
0.332026
0.373856
0.376471
0.440523
0.203922
0.398693
0.364706
0.211765
0.334641
0.338562
0.28366
0.25098
0.30719
0.236601
0.330719
0.214379
0.312418
0.35817
0.262745
0.240523
0.193464
0.287582
0.287582
0.224837
0.281046
0.197386
0.291503
0.257516
0.334641
0.278431
0.401307
0.257516
0.239216
0.576471
0.261438
0.34902
0.258824
0.248366
0.25098
0.317647
0.320261
0.341176
0.449673
0.376471
0.318954
0.261438
0.273203
0.32549
0.271895
0.279739
0.271895
0.461438
0.363399
0.416993
0.32549
0.406536
0.394771
0.299346
0.414379
0.372549
0.4
0.424837
0.31634
0.265359
0.329412
0.34902
0.334641
0.362092
0.457516
0.286275
0.420915
0.381699
0.279739
0.457516
0.328105
0.460131
0.317647
0.329412
0.415686
0.413072
0.454902
0.436601
0.379085
0.376471
0.436601
0.384314
0.360784
0.320261
0.4
0.299346
0.30719
0.45098
0.386928
0.328105
0.359477
0.407843
0.351634
0.345098
0.334641
0.368627
0.437908
0.381699
0.461438
0.414379
0.376471
0.277124
0.381699
0.415686
0.355556
0.381699
0.284967
0.317647
0.311111
0.326797
0.368627
0.300654
0.375163
0.321569
0.380392
0.329412
0.271895
0.320261
0.290196
0.278431
0.318954
0.282353
0.359477
0.333333
0.377778
0.35817
0.359477
0.343791
0.372549
0.356863
0.308497
0.287582
0.346405
0.366013
0.359477
0.284967
0.351634
0.303268
0.337255
0.369935
0.381699
0.329412
0.371242
0.398693
0.401307
0.377778
0.321569
0.296732
0.304575
0.386928
0.311111
0.341176
0.30719
0.350327
0.313725
0.337255
0.321569
0.333333
0.294118
0.305882
0.31634
0.32549
0.414379
0.36732
0.318954
0.318954
0.364706
0.437908
0.313725
0.313725
0.339869
0.309804
0.396078
0.428758
0.420915
0.392157
0.333333
0.318954
0.337255
0.30719
0.372549
0.303268
0.320261
0.482353
0.330719
0.386928
0.308497
0.478431
0.495425
0.504575
0.50719
0.479739
0.337255
0.503268
0.386928
0.418301
0.372549
0.337255
0.4
0.460131
0.505882
0.473203
0.423529
0.439216
0.458824
0.326797
0.406536
0.335948
0.482353
0.482353
0.449673
0.453595
0.487582
0.498039
0.482353
0.498039
0.470588
0.304575
0.377778
0.473203
0.47451
0.461438
0.34902
0.520261
0.501961
0.51634
0.508497
0.466667
0.380392
0.504575
0.396078
0.317647
0.341176
0.377778
0.436601
0.328105
0.326797
0.462745
0.473203
0.388235
0.420915
0.338562
0.352941
0.304575
0.341176
0.411765
0.431373
0.554248
0.505882
0.460131
0.556863
0.415686
0.420915
0.47451
0.486275
0.337255
0.343791
0.355556
0.273203
0.394771
0.277124
0.351634
0.452288
0.275817
0.377778
0.317647
0.28366
0.296732
0.303268
0.281046
0.330719
0.333333
0.298039
0.334641
0.303268
0.363399
0.430065
0.433987
0.368627
0.347712
0.317647
0.407843
0.401307
0.347712
0.402614
0.324183
0.381699
0.413072
0.318954
0.301961
0.315033
0.312418
0.296732
0.309804
0.299346
0.31634
0.334641
0.321569
0.330719
0.308497
0.309804
0.30719
0.30719
0.303268
0.402614
0.312418
0.305882
0.318954
0.299346
0.313725
0.305882
0.305882
0.31634
0.313725
0.317647
0.30719
0.279739
0.339869
0.277124
0.377778
0.303268
0.288889
0.295425
0.368627
0.28366
0.335948
0.329412
0.411765
0.380392
0.335948
0.467974
0.453595
0.45098
0.494118
0.40915
0.351634
0.364706
0.321569
0.394771
0.454902
0.457516
0.393464
0.457516
0.415686
0.364706
0.411765
0.427451
0.352941
0.406536
0.520261
0.513725
0.504575
0.532026
0.537255
0.532026
0.457516
0.369935
0.354248
0.427451
0.537255
0.513725
0.518954
0.426144
0.333333
0.522876
0.439216
0.402614
0.337255
0.4
0.313725
0.407843
0.350327
0.350327
0.291503
0.337255
0.318954
0.368627
0.478431
0.494118
0.840523
0.877124
0.887582
0.457516
0.534641
0.435294
0.509804
0.530719
0.597386
0.547712
0.882353
0.884967
0.877124
0.87451
0.869281
0.870588
0.867974
0.862745
0.866667
0.864052
0.43268
0.636601
0.529412
0.711111
0.715033
0.739869
0.88366
0.878431
0.870588
0.873203
0.88366
0.420915
0.508497
0.394771
0.420915
0.40915
0.372549
0.337255
0.457516
0.384314
0.413072
0.345098
0.64183
0.377778
0.522876
0.739869
0.465359
0.305882
0.321569
0.350327
0.649673
0.40915
0.347712
0.436601
0.320261
0.371242
0.322876
0.309804
0.406536
0.286275
0.338562
0.309804
0.362092
0.350327
0.311111
0.286275
0.301961
0.290196
0.30719
0.324183
0.301961
0.304575
0.304575
0.300654
0.312418
0.312418
0.29281
0.318954
0.309804
0.300654
0.328105
0.315033
0.386928
0.298039
0.317647
0.312418
0.333333
0.332026
0.296732
0.373856
0.320261
0.31634
0.30719
0.318954
0.324183
0.371242
0.29281
0.332026
0.32549
0.324183
0.295425
0.315033
0.321569
0.313725
0.30719
0.311111
0.31634
0.304575
0.334641
0.278431
0.281046
0.301961
0.279739
0.338562
0.311111
0.309804
0.351634
0.32549
0.30719
0.328105
0.320261
0.312418
0.313725
0.312418
0.27451
0.321569
0.309804
0.312418
0.337255
0.309804
0.324183
0.301961
0.347712
0.29281
0.311111
0.315033
0.318954
0.313725
0.318954
0.315033
0.317647
0.309804
0.311111
0.31634
0.31634
0.332026
0.350327
0.335948
0.373856
0.388235
0.296732
0.321569
0.665359
0.435294
0.338562
0.308497
0.312418
0.372549
0.712418
0.379085
0.386928
0.6
0.717647
0.30719
0.709804
0.658824
0.29281
0.448366
0.295425
0.317647
0.315033
0.281046
0.312418
0.724183
0.72549
0.529412
0.547712
0.465359
0.381699
0.295425
0.273203
0.381699
0.298039
0.321569
0.324183
0.334641
0.29281
0.324183
0.301961
0.415686
0.392157
0.300654
0.333333
0.342484
0.31634
0.352941
0.405229
0.343791
0.471895
0.464052
0.496732
0.70719
0.326797
0.324183
0.711111
0.364706
0.383007
0.360784
0.332026
0.538562
0.70719
0.720261
0.343791
0.329412
0.318954
0.317647
0.317647
0.320261
0.31634
0.347712
0.318954
0.321569
0.317647
0.315033
0.313725
0.265359
0.27451
0.304575
0.294118
0.304575
0.271895
0.309804
0.311111
0.281046
0.281046
0.311111
0.30719
0.299346
0.347712
0.311111
0.30719
0.320261
0.328105
0.32549
0.300654
0.309804
0.30719
0.287582
0.304575
0.311111
0.312418
0.311111
0.312418
0.30719
0.284967
0.299346
0.288889
0.282353
0.308497
0.269281
0.29281
0.284967
0.337255
0.288889
0.296732
0.29281
0.281046
0.267974
0.286275
0.256209
0.31634
0.258824
0.28366
0.309804
0.299346
0.326797
0.326797
0.29281
0.29281
0.294118
0.312418
0.303268
0.299346
0.273203
0.320261
0.334641
0.288889
0.30719
0.288889
0.298039
0.30719
0.294118
0.290196
0.275817
0.298039
0.300654
0.295425
0.303268
0.290196
0.290196
0.294118
0.269281
0.27451
0.267974
0.29281
0.284967
0.296732
0.299346
0.305882
0.290196
0.299346
0.311111
0.295425
0.291503
0.334641
0.30719
0.312418
0.27451
0.257516
0.262745
0.30719
0.296732
0.308497
0.304575
0.337255
0.329412
0.286275
0.318954
0.329412
0.321569
0.318954
0.286275
0.318954
0.324183
0.31634
0.303268
0.303268
0.339869
0.322876
0.326797
0.313725
0.313725
0.308497
0.309804
0.309804
0.315033
0.303268
0.313725
0.32549
0.315033
0.273203
0.308497
0.315033
0.334641
0.324183
0.300654
0.299346
0.324183
0.31634
0.326797
0.320261
0.298039
0.304575
0.308497
0.300654
0.328105
0.30719
0.317647
0.295425
0.286275
0.308497
0.313725
0.315033
0.294118
0.31634
0.299346
0.311111
0.318954
0.288889
0.299346
0.305882
0.299346
0.317647
0.312418
0.31634
0.31634
0.28366
0.294118
0.317647
0.301961
0.281046
0.303268
0.300654
0.315033
0.300654
0.275817
0.284967
0.275817
0.27451
0.295425
0.295425
0.291503
0.290196
0.284967
0.279739
0.321569
0.27451
0.326797
0.288889
0.288889
0.281046
0.275817
0.315033
0.309804
0.328105
0.287582
0.279739
0.286275
0.324183
0.317647
0.313725
0.305882
0.279739
0.303268
0.312418
0.303268
0.300654
0.317647
0.296732
0.296732
0.288889
0.304575
0.282353
0.313725
0.328105
0.296732
0.317647
0.296732
0.298039
0.287582
0.265359
0.288889
0.294118
0.282353
0.309804
0.295425
0.324183
0.295425
0.296732
0.337255
0.368627
0.333333
0.30719
0.313725
0.315033
0.308497
0.270588
0.313725
0.332026
0.346405
0.288889
0.354248
0.360784
0.311111
0.277124
0.286275
0.300654
0.31634
0.311111
0.284967
0.330719
0.298039
0.337255
0.341176
0.360784
0.29281
0.300654
0.264052
0.266667
0.298039
0.304575
0.356863
0.368627
0.345098
0.317647
0.379085
0.303268
0.355556
0.397386
0.328105
0.303268
0.359477
0.294118
0.239216
0.286275
0.320261
0.247059
0.267974
0.322876
0.291503
0.286275
0.309804
0.299346
0.296732
0.320261
0.320261
0.330719
0.312418
0.299346
0.343791
0.338562
0.30719
0.299346
0.291503
0.275817
0.32549
0.320261
0.29281
0.321569
0.304575
0.296732
0.262745
0.281046
0.329412
0.305882
0.265359
0.447059
0.328105
0.324183
0.303268
0.315033
0.428758
0.271895
0.30719
0.298039
0.311111
0.315033
0.286275
0.30719
0.330719
0.309804
0.300654
0.290196
0.312418
0.282353
0.321569
0.30719
0.328105
0.324183
0.329412
0.324183
0.31634
0.308497
0.342484
0.313725
0.313725
0.31634
0.312418
0.31634
0.286275
0.291503
0.355556
0.318954
0.281046
0.29281
0.30719
0.278431
0.31634
0.318954
0.300654
0.31634
0.324183
0.311111
0.30719
0.305882
0.312418
0.30719
0.287582
0.294118
0.30719
0.278431
0.317647
0.294118
0.318954
0.311111
0.303268
0.299346
0.315033
0.309804
0.315033
0.322876
0.313725
0.308497
0.326797
0.317647
0.312418
0.305882
0.284967
0.291503
0.315033
0.303268
0.324183
0.313725
0.322876
0.300654
0.317647
0.332026
0.318954
0.286275
0.301961
0.298039
0.267974
0.27451
0.300654
0.320261
0.282353
0.308497
0.291503
0.284967
0.279739
0.288889
0.305882
0.301961
0.304575
0.300654
0.28366
0.294118
0.281046
0.29281
0.29281
0.28366
0.30719
0.313725
0.303268
0.305882
0.315033
0.29281
0.284967
0.294118
0.296732
0.294118
0.521569
0.334641
0.715033
0.708497
0.320261
0.309804
0.304575
0.290196
0.271895
0.311111
0.337255
0.305882
0.299346
0.708497
0.329412
0.337255
0.32549
0.315033
0.313725
0.315033
0.28366
0.322876
0.287582
0.253595
0.291503
0.332026
0.31634
0.329412
0.294118
0.326797
0.32549
0.320261
0.315033
0.288889
0.298039
0.305882
0.30719
0.338562
0.290196
0.317647
0.533333
0.704575
0.704575
0.32549
0.311111
0.320261
0.350327
0.309804
0.732026
0.733333
0.334641
0.512418
0.320261
0.318954
0.317647
0.330719
0.304575
0.311111
0.305882
0.300654
0.312418
0.315033
0.343791
0.312418
0.315033
0.322876
0.337255
0.31634
0.343791
0.347712
0.312418
0.332026
0.290196
0.322876
0.309804
0.32549
0.288889
0.296732
0.343791
0.326797
0.333333
0.386928
0.296732
0.324183
0.313725
0.324183
0.290196
0.393464
0.273203
0.295425
0.317647
0.312418
0.337255
0.303268