# vtk DataFile Version 1.0
Unstructured Grid Example
ASCII

DATASET UNSTRUCTURED_GRID
POINTS 1726 float
4 513 0
8 513 0
11 513 0
15 513 0
19 513 0
23 513 0
29 513 0
36 513 0
46 513 0
56 513 0
69 513 0
77 513 0
88 513 0
97 513 0
106 513 0
121 513 0
131 513 0
144 513 0
150 513 0
156 513 0
166 513 0
171 513 0
177 513 0
182 513 0
188 513 0
196 513 0
200 513 0
204 513 0
208 513 0
214 513 0
219 513 0
223 513 0
230 513 0
237 513 0
243 513 0
247 513 0
252 513 0
258 513 0
266 513 0
271 513 0
277 513 0
288 513 0
296 513 0
305 513 0
312 513 0
319 513 0
327 513 0
335 513 0
343 513 0
353 513 0
368 513 0
388 513 0
400 513 0
411 513 0
428 513 0
440 513 0
449 513 0
458 513 0
464 513 0
474 513 0
479 513 0
485 513 0
490 513 0
494 513 0
499 513 0
504 513 0
509 513 0
512 513 0
0 511 0
512 508 0
0 507 0
512 505 0
0 504 0
512 502 0
0 501 0
512 498 0
0 494 0
512 493 0
0 489 0
512 487 0
0 485 0
512 482 0
0 480 0
211 478 0
214 478 0
230 478 0
207 477 0
512 477 0
217 476 0
232 476 0
204 475 0
221 475 0
240 475 0
201 474 0
225 474 0
238 473 0
227 472 0
234 472 0
512 472 0
0 471 0
201 471 0
231 471 0
243 471 0
195 470 0
237 470 0
199 469 0
245 469 0
193 467 0
248 466 0
190 465 0
512 465 0
251 464 0
0 463 0
248 463 0
189 462 0
251 461 0
189 459 0
249 458 0
253 458 0
0 456 0
189 456 0
251 456 0
512 455 0
187 454 0
253 454 0
260 453 0
184 452 0
189 451 0
258 451 0
254 450 0
183 449 0
258 447 0
512 446 0
0 445 0
183 445 0
260 445 0
264 445 0
183 442 0
266 442 0
263 441 0
183 438 0
190 438 0
263 438 0
268 438 0
0 437 0
266 436 0
185 435 0
188 434 0
270 433 0
262 432 0
512 432 0
188 431 0
265 431 0
0 428 0
185 427 0
262 427 0
265 426 0
182 425 0
184 423 0
264 422 0
512 422 0
181 421 0
178 419 0
182 418 0
189 418 0
262 418 0
0 417 0
259 417 0
265 417 0
175 416 0
178 415 0
263 415 0
173 414 0
176 413 0
260 413 0
171 412 0
253 412 0
256 412 0
264 410 0
166 409 0
170 409 0
251 409 0
256 409 0
161 408 0
242 408 0
0 407 0
248 407 0
253 407 0
179 406 0
512 406 0
160 405 0
241 405 0
250 405 0
157 404 0
244 404 0
239 403 0
254 403 0
247 402 0
160 401 0
167 401 0
170 401 0
173 401 0
241 401 0
251 401 0
165 400 0
178 400 0
245 400 0
156 399 0
176 399 0
185 399 0
239 399 0
161 398 0
166 398 0
169 398 0
173 398 0
181 398 0
198 398 0
247 398 0
0 397 0
158 397 0
189 397 0
154 396 0
186 396 0
201 396 0
239 396 0
191 395 0
188 394 0
199 394 0
236 394 0
195 393 0
244 393 0
153 392 0
162 392 0
166 392 0
173 392 0
170 391 0
176 391 0
239 391 0
159 390 0
167 390 0
174 390 0
178 390 0
244 390 0
152 389 0
155 389 0
165 389 0
209 389 0
235 389 0
512 389 0
160 388 0
163 388 0
206 388 0
238 388 0
242 388 0
158 387 0
233 387 0
156 386 0
204 386 0
210 386 0
153 385 0
207 385 0
231 385 0
0 384 0
179 384 0
182 384 0
190 384 0
194 384 0
176 383 0
184 383 0
187 383 0
199 383 0
227 383 0
149 382 0
174 382 0
178 382 0
181 382 0
191 382 0
197 382 0
161 381 0
164 381 0
200 381 0
229 381 0
159 380 0
171 380 0
175 380 0
202 380 0
225 380 0
148 379 0
155 379 0
222 379 0
153 378 0
163 378 0
199 378 0
213 378 0
216 378 0
150 377 0
161 377 0
201 377 0
204 377 0
210 377 0
512 377 0
157 376 0
220 376 0
153 375 0
193 375 0
202 375 0
205 375 0
209 375 0
217 375 0
213 374 0
150 373 0
196 373 0
204 373 0
210 373 0
147 372 0
177 372 0
193 372 0
207 372 0
171 371 0
174 371 0
218 371 0
162 370 0
167 370 0
178 370 0
194 370 0
197 370 0
206 370 0
145 369 0
172 369 0
156 368 0
160 368 0
168 368 0
198 368 0
215 368 0
0 367 0
162 367 0
168 367 0
196 367 0
219 367 0
151 366 0
154 366 0
186 366 0
189 366 0
200 366 0
214 366 0
144 365 0
160 365 0
198 365 0
148 364 0
155 364 0
158 364 0
187 364 0
202 364 0
153 363 0
189 363 0
200 363 0
213 363 0
151 362 0
191 362 0
215 362 0
219 362 0
222 362 0
146 361 0
201 361 0
204 361 0
143 360 0
174 360 0
512 360 0
172 359 0
190 359 0
202 359 0
222 359 0
167 358 0
170 358 0
175 358 0
141 357 0
163 357 0
194 357 0
203 357 0
159 356 0
165 356 0
180 356 0
184 356 0
192 356 0
223 356 0
0 355 0
157 355 0
182 355 0
197 355 0
204 355 0
220 355 0
141 354 0
155 354 0
162 354 0
186 354 0
206 354 0
149 353 0
152 353 0
159 353 0
184 353 0
195 353 0
199 353 0
213 353 0
217 353 0
143 352 0
146 352 0
157 352 0
207 352 0
211 352 0
140 351 0
154 351 0
186 351 0
198 351 0
218 351 0
150 350 0
184 350 0
212 350 0
215 350 0
222 350 0
225 350 0
142 349 0
145 349 0
200 349 0
185 348 0
198 348 0
0 347 0
139 347 0
166 347 0
170 347 0
177 347 0
187 347 0
225 347 0
174 346 0
180 346 0
161 345 0
164 345 0
189 345 0
200 345 0
137 344 0
192 344 0
225 344 0
179 343 0
194 343 0
221 343 0
512 343 0
159 342 0
191 342 0
196 342 0
136 341 0
155 341 0
219 341 0
140 340 0
148 340 0
152 340 0
194 340 0
215 340 0
157 339 0
221 339 0
227 339 0
0 338 0
144 338 0
150 338 0
154 338 0
183 338 0
196 338 0
224 338 0
138 337 0
141 337 0
135 335 0
183 335 0
186 335 0
225 335 0
159 333 0
188 333 0
191 332 0
134 331 0
157 331 0
215 331 0
218 331 0
221 331 0
512 331 0
225 330 0
155 329 0
192 329 0
207 329 0
210 329 0
213 329 0
139 328 0
142 328 0
147 328 0
217 328 0
220 328 0
223 328 0
135 327 0
153 327 0
194 327 0
229 327 0
0 326 0
145 326 0
149 326 0
138 325 0
133 324 0
230 324 0
337 323 0
131 321 0
231 321 0
227 320 0
224 319 0
512 319 0
131 318 0
217 318 0
220 318 0
210 317 0
133 316 0
136 316 0
140 316 0
150 316 0
154 316 0
213 316 0
223 316 0
226 316 0
0 315 0
143 315 0
229 315 0
138 314 0
146 314 0
152 314 0
156 314 0
132 313 0
135 313 0
232 313 0
156 310 0
232 310 0
130 309 0
229 308 0
226 307 0
512 307 0
0 306 0
219 306 0
223 306 0
153 305 0
216 305 0
129 304 0
133 304 0
138 304 0
142 304 0
156 304 0
221 304 0
225 304 0
228 304 0
232 304 0
145 303 0
150 303 0
135 302 0
154 302 0
234 302 0
130 301 0
0 300 0
234 297 0
129 296 0
231 296 0
512 296 0
228 295 0
212 294 0
215 294 0
222 294 0
225 294 0
0 293 0
134 293 0
137 293 0
145 293 0
151 293 0
130 292 0
217 292 0
220 292 0
227 292 0
230 292 0
140 291 0
143 291 0
148 291 0
153 291 0
234 291 0
133 290 0
136 290 0
0 288 0
131 287 0
234 287 0
231 285 0
229 284 0
0 283 0
224 283 0
227 283 0
240 283 0
246 283 0
512 283 0
132 282 0
137 282 0
189 282 0
206 282 0
209 282 0
214 282 0
218 282 0
237 282 0
243 282 0
144 281 0
148 281 0
222 281 0
226 281 0
231 281 0
135 280 0
151 280 0
212 280 0
216 280 0
233 280 0
238 280 0
241 280 0
247 280 0
0 279 0
138 279 0
141 279 0
146 279 0
235 279 0
237 278 0
41 277 0
134 277 0
233 277 0
241 277 0
244 277 0
0 275 0
232 275 0
249 275 0
253 275 0
134 274 0
245 274 0
512 274 0
225 273 0
230 273 0
242 273 0
256 273 0
221 272 0
228 272 0
234 272 0
252 272 0
260 272 0
0 271 0
134 271 0
195 271 0
247 271 0
263 271 0
201 270 0
219 270 0
230 270 0
250 270 0
254 270 0
257 270 0
145 269 0
193 269 0
197 269 0
216 269 0
221 269 0
226 269 0
232 269 0
245 269 0
260 269 0
224 268 0
133 267 0
147 267 0
230 267 0
0 266 0
243 265 0
246 265 0
133 264 0
238 264 0
512 264 0
223 263 0
226 263 0
229 263 0
236 263 0
231 262 0
240 262 0
244 262 0
248 262 0
0 261 0
135 261 0
225 261 0
138 260 0
218 260 0
222 260 0
234 260 0
242 260 0
246 260 0
145 259 0
200 259 0
203 259 0
210 259 0
214 259 0
224 259 0
237 259 0
249 259 0
133 258 0
136 258 0
141 258 0
217 258 0
226 258 0
240 258 0
244 258 0
148 257 0
208 257 0
212 257 0
219 257 0
223 257 0
0 256 0
151 256 0
221 256 0
225 256 0
237 256 0
246 256 0
250 256 0
240 255 0
133 254 0
223 254 0
253 254 0
249 253 0
512 253 0
0 251 0
219 251 0
133 250 0
210 250 0
215 249 0
138 248 0
208 248 0
220 248 0
212 247 0
217 247 0
0 246 0
133 246 0
136 246 0
143 246 0
139 245 0
215 245 0
512 245 0
132 243 0
220 243 0
0 241 0
218 241 0
132 240 0
512 240 0
134 238 0
131 237 0
211 237 0
217 237 0
220 237 0
136 236 0
214 236 0
222 235 0
0 234 0
130 234 0
139 234 0
512 234 0
224 233 0
131 230 0
512 230 0
134 229 0
222 229 0
225 229 0
0 227 0
130 227 0
137 227 0
227 227 0
133 225 0
216 225 0
219 225 0
222 225 0
230 225 0
136 224 0
512 224 0
139 223 0
130 222 0
229 221 0
512 221 0
0 220 0
130 219 0
227 219 0
233 218 0
512 218 0
225 217 0
131 216 0
231 216 0
235 216 0
0 215 0
58 215 0
135 215 0
222 215 0
129 214 0
226 214 0
495 214 0
512 214 0
220 213 0
236 213 0
504 212 0
499 211 0
512 211 0
130 210 0
236 209 0
507 209 0
0 208 0
459 208 0
504 208 0
131 207 0
500 207 0
512 207 0
236 204 0
239 204 0
372 204 0
423 204 0
512 204 0
429 203 0
0 202 0
133 202 0
290 202 0
300 202 0
241 201 0
287 201 0
295 201 0
320 201 0
329 201 0
267 200 0
512 200 0
134 199 0
241 198 0
512 197 0
134 196 0
243 196 0
246 195 0
512 194 0
0 193 0
137 191 0
245 191 0
512 190 0
248 189 0
137 188 0
0 187 0
250 186 0
512 186 0
138 185 0
135 184 0
252 184 0
0 182 0
135 181 0
250 181 0
512 181 0
0 178 0
132 178 0
254 178 0
512 176 0
129 174 0
256 174 0
0 173 0
127 172 0
258 171 0
512 170 0
124 169 0
0 168 0
259 168 0
125 166 0
260 164 0
0 162 0
125 162 0
84 161 0
363 161 0
512 161 0
262 160 0
0 159 0
261 157 0
123 156 0
0 155 0
512 155 0
262 154 0
10 153 0
0 152 0
13 152 0
122 151 0
512 151 0
10 150 0
0 149 0
264 149 0
4 147 0
512 147 0
7 146 0
119 145 0
476 145 0
0 144 0
9 143 0
266 143 0
512 143 0
12 142 0
10 140 0
0 139 0
117 139 0
267 139 0
512 138 0
0 135 0
268 135 0
116 133 0
0 132 0
512 132 0
270 130 0
0 128 0
113 127 0
269 127 0
512 125 0
271 124 0
0 123 0
115 122 0
271 121 0
189 120 0
0 119 0
114 118 0
512 118 0
187 117 0
191 117 0
271 116 0
146 115 0
193 115 0
114 114 0
143 114 0
151 114 0
157 113 0
185 113 0
271 113 0
512 113 0
0 112 0
163 112 0
141 111 0
168 111 0
173 111 0
177 111 0
195 111 0
113 110 0
180 110 0
38 109 0
184 109 0
41 108 0
196 108 0
241 108 0
274 108 0
112 107 0
139 107 0
237 107 0
512 107 0
0 106 0
31 106 0
246 106 0
232 105 0
111 104 0
138 104 0
275 104 0
198 103 0
226 103 0
221 102 0
512 102 0
249 101 0
277 101 0
137 100 0
199 100 0
216 100 0
0 99 0
212 99 0
279 99 0
110 98 0
201 98 0
205 98 0
209 98 0
250 98 0
286 98 0
320 98 0
135 97 0
289 97 0
253 96 0
284 96 0
512 96 0
109 95 0
281 95 0
293 95 0
302 95 0
313 95 0
316 95 0
319 95 0
323 95 0
299 94 0
307 94 0
310 94 0
329 94 0
134 93 0
321 93 0
0 92 0
109 92 0
256 92 0
295 92 0
334 92 0
318 91 0
327 91 0
337 91 0
512 91 0
133 90 0
299 90 0
324 90 0
331 90 0
108 89 0
335 89 0
[...]
CELL_DATA 1726
COLOR_SCALARS lut 1
0.0777088
0.0991688
0.118157
0.145811
0.174928
0.204736
0.249955
0.302928
0.378647
0.454301
0.551867
0.609316
0.670456
0.674315
0.637026
0.552855
0.495395
0.42232
0.391118
0.362466
0.320304
0.301435
0.280962
0.265454
0.248069
0.227797
0.219462
0.21279
0.208211
0.205616
0.206734
0.20874
0.212261
0.21736
0.225555
0.23343
0.245279
0.262354
0.288882
0.306862
0.330118
0.378754
0.416683
0.460103
0.494819
0.531015
0.573213
0.615388
0.658283
0.713902
0.801765
0.896795
0.866686
0.793453
0.666335
0.575531
0.507387
0.439238
0.393804
0.318074
0.280216
0.234848
0.197245
0.167562
0.131732
0.0991688
0.0732379
0.0622111
0.0691643
0.0825635
0.0877788
0.0991687
0.105277
0.118157
0.124871
0.145811
0.174928
0.182335
0.212245
0.227304
0.242399
0.26508
0.280216
0.107135
0.106682
0.101676
0.108545
0.302929
0.103873
0.0949164
0.110018
0.101988
0.103982
0.116436
0.097023
0.0936421
0.0956212
0.0896471
0.340794
0.348367
0.113402
0.0919456
0.0999404
0.129116
0.0908687
0.117382
0.100607
0.128043
0.101048
0.130706
0.393804
0.103254
0.408948
0.0951799
0.12478
0.0953603
0.117507
0.0917283
0.0924296
0.461951
0.111089
0.0897426
0.469527
0.106531
0.0879647
0.0956382
0.105561
0.101584
0.0868918
0.0874086
0.10087
0.0836236
0.537676
0.545213
0.0947659
0.082335
0.0873719
0.092088
0.0873791
0.0807066
0.0902162
0.0958471
0.0793104
0.087881
0.605661
0.0810729
0.0871177
0.09002
0.0936012
0.0808729
0.643683
0.0901128
0.0804402
0.673094
0.084877
0.0820899
0.083498
0.0846784
0.0817561
0.0841634
0.719385
0.080784
0.0821415
0.0775768
0.0926165
0.0824703
0.751009
0.0809489
0.0905479
0.0815891
0.0754209
0.0861067
0.0801431
0.0736706
0.0812622
0.0777163
0.0804123
0.0785957
0.0981295
0.0764102
0.0704196
0.0785189
0.0793165
0.0848338
0.0945429
0.802133
0.0787498
0.0785163
0.065402
0.84005
0.076838
0.0896202
0.077956
0.0842617
0.0802028
0.0917084
0.0874102
0.07785
0.0657975
0.0554191
0.0542918
0.0544734
0.0819091
0.0853509
0.0553794
0.0565179
0.0777821
0.0743116
0.0537311
0.0663675
0.0833845
0.0578444
0.0519145
0.050831
0.0512802
0.0584566
0.0891952
0.082193
0.812777
0.0632874
0.0694933
0.0759872
0.0639133
0.0897317
0.080026
0.0683039
0.0639943
0.07801
0.0827015
0.0690455
0.0848163
0.0722143
0.0501623
0.0479573
0.0488312
0.0478667
0.0505972
0.0814837
0.0526346
0.0476115
0.04936
0.0523569
0.092739
0.0712474
0.0605098
0.0477699
0.0841384
0.08161
0.958695
0.0503034
0.0482475
0.0740102
0.0853588
0.0936228
0.0524009
0.0815341
0.0553462
0.0649704
0.0749657
0.0622153
0.066759
0.0806512
0.791387
0.0545089
0.057027
0.0580321
0.0565603
0.0527073
0.0585057
0.0588104
0.0553937
0.0772924
0.0740097
0.0521812
0.0547538
0.057183
0.0569047
0.0542216
0.0490634
0.04909
0.0534037
0.0801739
0.0499791
0.0521881
0.0541055
0.0530004
0.0739043
0.0748167
0.0540787
0.0693135
0.0574978
0.049989
0.0511629
0.0585903
0.0613814
0.0650428
0.0501184
0.0505124
0.0511881
0.0547995
1
0.0517813
0.0645393
0.0566766
0.0538351
0.0497141
0.0504365
0.0524416
0.0594671
0.0546622
0.0626136
0.0507912
0.0496052
0.0521893
0.0718556
0.0592366
0.0529022
0.0505552
0.0561526
0.0577659
0.0601848
0.051838
0.0540508
0.0597699
0.0513523
0.0496797
0.0502985
0.0774388
0.0572169
0.0530398
0.0520455
0.055273
0.0491384
0.0557953
0.707912
0.0527045
0.0556717
0.0494319
0.0625668
0.0582048
0.0546627
0.0560553
0.0534379
0.0490549
0.055035
0.078036
0.0530408
0.0488499
0.0637799
0.0543174
0.0533614
0.0538201
0.0496956
0.0558999
0.0516526
0.0490963
0.0548137
0.0580786
0.0499807
0.0563028
0.0621531
0.0709016
0.0677348
0.0495194
0.0509939
0.0771888
0.0592742
0.986552
0.0595031
0.049457
0.0501076
0.0697169
0.0581443
0.0594474
0.0591567
0.0819034
0.0560644
0.0481763
0.0508875
0.0546424
0.0576202
0.0559246
0.052483
0.0484404
0.0716215
0.620773
0.0546091
0.0541548
0.0486043
0.0520411
0.0625248
0.0780203
0.0550648
0.0563176
0.0511171
0.0537563
0.0591862
0.0566065
0.0551699
0.0527678
0.0489611
0.0500631
0.0565821
0.0582035
0.06956
0.0631087
0.0551193
0.0557512
0.0568874
0.078707
0.0559563
0.0520903
0.0509362
0.0593034
0.0585501
0.0540516
0.058606
0.0584984
0.0654458
0.075245
0.0704472
0.0642322
0.0540725
0.0546375
0.0536891
0.561286
0.0782124
0.0657315
0.0687077
0.0647416
0.0541818
0.0731802
0.0695036
0.0622512
0.0624165
0.0664578
0.055301
0.0591998
0.0824539
0.0558317
0.0712659
0.0695805
0.0574235
0.0625478
0.964563
0.0640344
0.0587766
0.0598705
0.0829405
0.0615201
0.0616491
0.0695413
0.0619575
0.0614488
0.0620896
0.06449
0.0655422
0.0620662
0.0752281
0.496244
0.0641548
0.0626014
0.0638028
0.0761329
0.0665733
0.0657062
0.0725598
0.0669358
0.0802837
0.0860447
0.0797627
0.0669933
0.0801227
0.0825895
0.081147
0.0796413
0.0784169
0.0667731
0.0632285
0.0619101
0.93574
0.0655678
0.0766649
0.0900286
0.0807482
0.0760845
0.0708825
0.0667991
0.0655035
0.0670889
0.065471
0.0628004
0.0629167
0.0729687
0.0748651
0.0952413
0.0753893
0.416128
0.066624
0.0697999
0.0670679
0.0766103
0.0767297
0.589763
0.0813902
0.077964
0.0661557
0.0637055
0.866978
0.0786099
0.071379
0.0665464
0.0916574
0.0708541
0.0657905
0.0642674
0.0707011
0.0782358
0.0831449
0.0646224
0.0645782
0.350819
0.0648664
0.0683754
0.0640493
0.0663156
0.0728514
0.08307
0.0719792
0.0660155
0.0761545
0.0823603
0.074508
0.0765459
0.0667883
0.0650813
0.77881
0.304878
0.074269
0.0673017
0.0760731
0.0826647
0.0784442
0.0666981
0.0630426
0.0643347
0.0861018
0.0706602
0.065578
0.0651284
0.0712167
0.0665351
0.0719362
0.0642215
0.0816999
0.0764252
0.0744345
0.27885
0.0722357
0.079409
0.0645157
0.692263
0.0618309
0.0923213
0.0820722
0.0662896
0.0626257
0.254886
0.0669041
0.0647874
0.0702075
0.0820135
0.077463
0.075091
0.0685717
0.0601985
0.0605135
0.0659315
0.0684251
0.0760522
0.090266
0.0658915
0.0699268
0.0660283
0.242887
0.0779016
0.0608742
0.0550143
0.0537946
0.235621
0.0566532
0.053863
0.0694656
0.090443
0.581154
0.0789596
0.0690079
0.132806
0.0944537
0.0870634
0.074595
0.065716
0.0598168
0.0764055
0.0729668
0.0810133
0.0581525
0.0533916
0.0515922
0.0725737
0.0912352
0.0783905
0.0690601
0.0519263
0.0591121
0.0659906
0.0844775
0.232966
0.0700806
0.0706344
0.0774099
0.0531963
0.0551673
0.320223
0.0771437
0.0503578
0.0612179
0.0679108
0.232667
0.0494044
0.0798529
0.0989215
0.0793237
0.0660559
0.502398
0.0516948
0.0489889
0.0593425
0.112213
0.0567678
0.0494018
0.0501467
0.0884181
0.136246
0.234663
0.0804641
0.106601
0.0686946
0.155192
0.0923117
0.0596352
0.0490418
0.0782625
0.0968201
0.11394
0.0788412
0.114714
0.101295
0.0654569
0.0557213
0.0502393
0.0496427
0.0634198
0.132123
0.0517509
0.0831927
0.0833549
0.0498545
0.240903
0.06158
0.0675559
0.0819556
0.0569023
0.41685
0.0529216
0.0519878
0.0524738
0.0565319
0.0546367
0.0614474
0.0669668
0.0772376
0.251757
0.0749424
0.053449
0.0707134
0.0571069
0.0542847
0.060394
0.0674641
0.0750321
0.0767467
0.0994915
0.0877579
0.0696234
0.0622517
0.0550931
0.065116
0.0866801
0.0797037
0.072384
0.0710858
0.057798
0.0576291
0.0701436
0.0752557
0.0861647
0.0737509
0.0649924
0.0564285
0.0568015
0.266731
0.0996553
0.0568966
0.0599835
0.0739716
0.0851889
0.0985169
0.0796658
0.0791761
0.0607321
0.119588
0.105119
0.327872
0.284855
0.060596
0.0789989
0.0736273
0.0638554
0.0744849
0.0836362
0.0642809
0.0717737
0.0641685
0.304395
0.0786183
0.0747311
0.0868957
0.0776459
0.0681133
0.267204
0.0806869
0.068943
0.322731
0.0697303
0.0798264
0.230781
0.0761793
0.0813082
0.0919805
0.0742464
0.0725283
0.07626
0.0824952
0.074379
0.339794
0.0831654
0.0826009
0.188062
0.0765831
0.0790787
0.159778
0.0748798
0.0753589
0.0761065
0.343088
0.082002
0.0780735
0.0777344
0.0763065
0.0959477
0.0850746
0.0783563
0.0823906
0.0779681
0.11905
0.0864882
0.083642
0.0787452
0.100944
0.340615
0.0864952
0.0797285
0.0844347
0.0856007
0.0857745
0.0889655
0.0821051
0.0883719
0.339178
0.405861
0.0915518
0.09965
0.0978726
0.0913078
0.122632
0.0712228
0.115189
0.0899297
0.0907894
0.10474
0.0661989
0.106127
0.0913278
0.080823
0.338152
0.259577
0.0918316
0.114682
0.107665
0.0682907
0.097615
0.0963649
0.318231
0.293198
0.0763552
0.271837
0.335433
0.128403
0.13179
0.138445
0.0984621
0.138671
0.129199
0.139514
0.147379
0.167046
0.0940794
0.132066
0.0999153
0.111071
0.130138
0.099511
0.099902
0.130161
0.311648
0.123011
0.101194
0.157354
0.101147
0.117135
0.276922
0.104007
0.184614
0.117439
0.11073
0.106628
0.241949
0.112268
0.112184
0.215916
0.212838
0.113277
0.112963
0.240018
0.118201
0.118806
0.176764
0.120761
0.123953
0.252361
0.125743
0.142492
0.127357
0.127617
0.128331
0.106035
0.139733
0.301086
0.330018
0.243078
0.131178
0.0906608
0.136738
0.170196
0.0740471
0.232648
0.146997
0.104755
0.0649163
0.117247
0.196935
0.227284
0.095827
0.0591354
0.167698
0.0688598
0.22417
0.0790578
0.210834
0.294618
0.0583985
0.0900889
0.178821
0.223701
0.106844
0.102726
0.0691181
0.195085
0.169723
0.227022
0.0844353
0.152068
0.160907
0.0986568
0.236725
0.130952
0.119517
0.13314
0.122598
0.255001
0.120473
0.144908
0.11997
0.122037
0.119951
0.161227
0.123114
0.27848
0.108707
0.109232
0.130244
0.126883
0.107488
0.133148
0.122297
0.140645
0.164801
0.10374
0.134361
0.295663
0.175858
0.179114
0.122922
0.171855
0.15034
0.130553
0.10701
0.14597
0.118626
0.146127
0.10871
0.155593
0.108323
0.129403
0.131153
0.153046
0.130306
0.140409
0.311332
0.180585
0.143053
0.123161
0.160259
0.155545
0.135328
0.122475
0.111998
0.180691
0.182069
0.315976
0.130914
0.113403
0.135843
0.115312
0.167168
0.187412
0.150657
0.107033
0.145093
0.119451
0.125765
0.138966
0.138363
0.0991577
0.0915905
0.130111
0.0961551
0.141919
0.0983796
0.312038
0.13692
0.102606
0.0916684
0.0900947
0.0857631
0.0822781
0.0797084
0.0792376
0.0886605
0.0890466
0.0872924
0.0821466
0.11815
0.0739032
0.195222
0.12921
0.141426
0.0909251
0.0861215
0.0748948
0.0707739
0.0922042
0.302696
0.109956
0.0921536
0.0690725
0.0730125
0.126146
0.0788191
0.0921596
0.129432
0.129069
0.0678173
0.0675652
0.194042
0.104494
0.0793639
0.073463
0.0828803
0.133283
0.0675834
0.272442
0.100856
0.119519
0.0735593
0.144419
0.27676
0.146392
0.138297
0.0990132
0.112615
0.0690252
0.18061
0.0885359
0.0910262
0.0971127
0.105395
0.0698847
0.136315
0.0816335
0.0736757
0.0776099
0.100703
0.0939388
0.0991192
0.0777406
0.0908761
0.0911733
0.0874559
0.0857884
0.0792265
0.151857
0.129686
0.0875102
0.0870431
0.221315
0.091731
0.0772456
0.0799729
0.0844047
0.0815287
0.0799293
0.0781229
0.102749
0.164853
0.0937561
0.0890575
0.0880046
0.117675
0.0900284
0.0944332
0.0849773
0.0826337
0.0831263
0.085842
0.0795147
0.0929157
0.129214
0.0935187
0.0929617
0.0904545
0.104564
0.0848571
0.104941
0.177969
0.111909
0.0926381
0.0891265
0.0891779
0.128306
0.107122
0.115453
0.0888736
0.118291
0.0951659
0.0893426
0.0936911
0.126616
0.13351
0.135329
0.124062
0.133531
0.0909825
0.148826
0.090163
0.0975216
0.0899768
0.0851357
0.139981
0.126074
0.0952808
0.105567
0.119879
0.0847053
0.0804382
0.0859793
0.120271
0.122635
0.0763449
0.0831964
0.07885
0.0959478
0.0918568
0.0798146
0.0862888
0.113644
0.114922
0.0930187
0.0788807
0.0989328
0.107542
0.0659116
0.0898375
0.0901287
0.0899895
0.10639
0.0836049
0.0907621
0.0785235
0.0766695
0.0990877
0.0737595
0.0815434
0.0877987
0.0976456
0.0945572
0.0614635
0.0815139
0.0811946
0.0816045
0.0788324
0.0831349
0.0880101
0.091846
0.0651547
0.0752528
0.0784389
0.0771751
0.0977451
0.0588538
0.0793379
0.0931412
0.0853255
0.0957813
0.0773815
0.072074
0.0879235
0.0748032
0.074302
0.0570391
0.0649639
0.0803329
0.0816542
0.0825468
0.079139
0.0995417
0.119738
0.119054
0.0967398
0.105431
0.0864297
0.0974988
0.0890215
0.0940807
0.0889827
0.0815814
0.107512
0.101473
0.0895194
0.0623076
0.0869399
0.0913548
0.110306
0.125864
0.071883
0.102104
0.0907834
0.102629
0.0882396
0.0901026
0.0755723
0.102453
0.0962302
0.0899365
0.0898556
0.0908787
0.0870787
0.0883994
0.0746608
0.0777991
0.0920933
0.116852
0.0618355
0.0787329
0.0938687
0.103805
0.0896844
0.0865347
0.0764662
0.078205
0.0810102
0.142431
0.0747914
0.0748235
0.100979
0.0972047
0.10087
0.0767052
0.0800868
0.0798074
0.081228
0.0747804
0.0695449
0.0697997
0.11114
0.177895
0.107783
0.0772686
0.0743297
0.0722106
0.0772122
0.0754471
0.0727405
0.071162
0.0694521
0.0738108
0.0878847
0.0983159
0.0896722
0.0844736
0.0773965
0.0977947
0.0692962
0.0711151
0.0732957
0.0696677
0.0791679
0.100119
0.14787
0.0828476
0.0688545
0.0791687
0.0763761
0.111591
0.0681877
0.0709566
0.0731485
0.073625
0.0718256
0.119927
0.110961
0.0907192
0.0939777
0.0669982
0.0724071
0.0684412
0.0691582
0.124497
0.0985895
0.105586
0.107754
0.0883714
0.070344
0.0683957
0.0698555
0.0723355
0.0727318
0.0830517
0.0918955
0.10947
0.120489
0.0945425
0.0856243
0.0637207
0.0684485
0.0702734
0.0683116
0.0675804
0.176668
0.156235
0.123956
0.0731749
0.0978422
0.0840206
0.0816437
0.0685621
0.0734599
0.0748131
0.0831383
0.144826
0.0816419
0.0630602
0.0705174
0.0716316
0.0712986
0.0708032
0.0933867
0.091117
0.0912983
0.065085
0.0655161
0.0780623
0.0800728
0.0886912
0.112914
0.0715262
0.0938901
0.0870032
0.0880792
0.0784132
0.0699149
0.0750598
0.0900476
0.0813333
0.0681224
0.0667451
0.0753085
0.0789356
0.0806919
0.0911
0.0766619
0.0760729
0.0927435
0.0857685
0.0799777
0.0834565
0.0858489
0.126602
0.0659032
0.0917017
0.0733047
0.0732981
0.0758989
0.069874
0.0906804
0.0939113
0.0932533
0.0868851
0.0751662
0.131717
0.123073
0.116609
0.101642
0.0976218
0.06956
0.0779337
0.0712904
0.134317
0.134063
0.138213
0.0583662
0.0842635
0.0877008
0.0891706
0.0817999
0.0812084
0.0815057
0.132627
0.111685
0.105344
0.0819063
0.079481
0.0707865
0.0867359
0.0680511
0.0753299
0.0838387
0.108849
0.0834054
0.0681579
0.0666373
0.0803454
0.070171
0.076163
0.0923611
0.0861887
0.0835206
0.0818337
0.0825482
0.072501
0.0695189
0.0705278
0.130897
0.0511294
0.0654288
0.0653028
0.0691953
0.0714436
0.0645344
0.0689838
0.114133
0.120824
0.126435
0.147028
0.0624055
0.0696422
0.0708098
0.0657261
0.0698457
0.0752594
0.0716111
0.0676583
0.108534
0.0500874
0.0604152
0.0604778
0.0600732
0.0594755
0.0592472
0.061231
0.0715352
0.0827573
0.0631589
0.10322
0.0455792
0.0522292
0.0611697
0.0630344
0.0667323
0.0676651
0.0644213
0.0674704
0.0524035
0.0558029
0.0570314
0.0572349
0.0797664
0.102292
0.145098
0.0531802
0.0563004
0.0561647
0.0558429
0.0749476
0.0683146
0.0522386
0.0546227
0.0686934
0.0990641
0.0518205
0.0528898
0.0549371
0.0556761
0.0553706
0.0790291
0.0637117
0.0640779
0.0670571
0.0651692
0.0646933
0.0407877
0.0442499
0.0474979
0.0492794
0.0516988
0.0554565
0.054616
0.0558908
0.0582644
0.0813718
0.0660689
0.0650572
0.0668584
0.068033
0.0684236
0.0629782
0.0777255
0.0702462
0.0452465
0.0562568
0.056556
0.0564503
0.0556366
0.0753835
0.0641864
0.0776545
0.0711285
0.0961142
0.128772
0.0407543
0.0496858
0.05238
0.0553891
0.0557635
0.0542874
0.0737914
0.0771354
0.0771847
0.0427819
0.0550006
0.0580029
0.0550847
0.0568591
0.0771487
0.0771202
0.0715291
0.088258
0.039427
0.0478657
0.0504621
0.0598212
0.0597219
0.0555935
0.0746438
0.0761443
0.074316
0.0529719
0.0589291
0.0604332
0.068616
0.0600672
0.0705469
0.0715731
0.0703813
0.0696608
0.069964
0.0836
0.0422097
0.0457928
0.0490983
0.104179
0.0385437
0.0478003
0.0637731
0.058539
0.0655271
0.0765961
0.0605097
0.0722105
0.0815013
0.0815507
0.0876409
0.0595469
0.0578492
0.0798669
0.0567681
0.0567687
0.0806011
0.0374353
0.0549503
0.0553558
0.0687175
0.0675789
0.0690284
0.0793561
0.0537426
0.0564859
0.0549459
0.0652603
0.0525287
0.0539692
0.0568508
0.0663875
0.0746358
0.0839104
0.093154
0.103262
0.107544
0.107985
0.104843
0.0994942
0.0934921
0.0881277
0.0842649
0.0818451
0.0820621
0.082881
0.0830889
0.0827324
0.081725
0.0789325
0.075257
0.0700956
0.0642983
0.0568753
0.0547169
0.053862
0.0548724
0.0579712
0.0612299
0.0672227
0.0711378
0.0733387
0.073271
0.0719722
0.0704255
0.0682599
0.066264
0.0645594
0.0636453
0.0639414
0.0671441
0.0705774
0.0726375
0.0734399
0.0722981
0.0690221
0.0647637
0.0359551
0.0638209
0.0374999
0.0409826
0.0458656
0.0492528
0.0524547
0.0554275
0.0579371
0.0610334
0.0623032
0.0630216
0.0630362
0.0625533
0.0616474
0.0593477
0.0550596
0.0523509
0.051185
0.0523936
0.054749
0.0589562
0.0965458
0.0824368
0.0816616
0.0826232
0.0803639
0.0577278
0.0551201
0.0533198
0.0536022
0.0551406
0.0578075
0.0636486
0.0682421
0.071357
0.0717808
0.0683301
0.0662956
0.0644944
0.0625701
0.0646318
0.0679113
0.0576999
0.057959
0.0648045
0.0740792
0.0848302
0.0954934
0.104486
0.110325
0.109268
0.101484
0.0847656
0.073898
0.064312
0.0570837
0.0524963
0.0503623
0.0511765
0.0548159
0.0614877
0.0712548
0.0924267
0.106095
0.126195
0.135185
0.143797
0.150242
0.156268
0.164572
0.171378
0.179611
0.183348
0.184557
0.184108
0.182119
0.181245
0.183613
0.18603
0.189444
0.193769
0.197925
0.203079
0.20904
0.21725
0.223844
0.232079
0.235505
0.232172
0.223941
0.218937
0.21637
0.214607
0.21484
0.215957
0.218038
0.221194
0.222272
0.219761
0.211612
0.187184
0.158721
0.133564
0.114615
0.0966222
0.0715555
