# vtk DataFile Version 1.0
Unstructured Grid Example
ASCII

DATASET UNSTRUCTURED_GRID
POINTS 9664 float
4 513 0
8 513 0
11 513 0
15 513 0
19 513 0
23 513 0
29 513 0
36 513 0
46 513 0
56 513 0
69 513 0
77 513 0
88 513 0
97 513 0
106 513 0
121 513 0
131 513 0
144 513 0
150 513 0
156 513 0
166 513 0
171 513 0
177 513 0
182 513 0
188 513 0
196 513 0
200 513 0
204 513 0
208 513 0
214 513 0
219 513 0
223 513 0
230 513 0
237 513 0
243 513 0
247 513 0
252 513 0
258 513 0
266 513 0
271 513 0
277 513 0
288 513 0
296 513 0
305 513 0
312 513 0
319 513 0
327 513 0
335 513 0
343 513 0
353 513 0
368 513 0
388 513 0
400 513 0
411 513 0
428 513 0
440 513 0
449 513 0
458 513 0
464 513 0
474 513 0
479 513 0
485 513 0
490 513 0
494 513 0
499 513 0
504 513 0
509 513 0
512 513 0
0 511 0
507 511 0
3 510 0
6 510 0
14 510 0
26 510 0
191 510 0
226 510 0
378 510 0
501 510 0
504 510 0
510 510 0
9 509 0
161 509 0
184 509 0
195 509 0
235 509 0
281 509 0
483 509 0
494 509 0
22 508 0
169 508 0
205 508 0
209 508 0
222 508 0
231 508 0
239 508 0
253 508 0
260 508 0
274 508 0
467 508 0
475 508 0
512 508 0
0 507 0
3 507 0
6 507 0
12 507 0
17 507 0
34 507 0
43 507 0
49 507 0
114 507 0
178 507 0
200 507 0
213 507 0
217 507 0
288 507 0
420 507 0
455 507 0
489 507 0
502 507 0
506 507 0
509 507 0
136 506 0
151 506 0
245 506 0
266 506 0
300 506 0
315 506 0
496 506 0
9 505 0
60 505 0
144 505 0
432 505 0
485 505 0
512 505 0
0 504 0
3 504 0
6 504 0
25 504 0
97 504 0
157 504 0
189 504 0
225 504 0
230 504 0
406 504 0
480 504 0
499 504 0
504 504 0
13 503 0
20 503 0
31 503 0
75 503 0
165 503 0
174 503 0
202 503 0
207 503 0
235 503 0
254 503 0
348 503 0
360 503 0
493 503 0
182 502 0
194 502 0
215 502 0
221 502 0
240 502 0
261 502 0
271 502 0
309 502 0
339 502 0
371 502 0
463 502 0
474 502 0
507 502 0
512 502 0
0 501 0
42 501 0
52 501 0
126 501 0
279 501 0
447 501 0
502 501 0
3 500 0
10 500 0
198 500 0
232 500 0
325 500 0
489 500 0
17 499 0
86 499 0
105 499 0
170 499 0
189 499 0
212 499 0
227 499 0
248 499 0
266 499 0
289 499 0
382 499 0
67 498 0
160 498 0
202 498 0
208 498 0
243 498 0
438 498 0
469 498 0
484 498 0
495 498 0
504 498 0
508 498 0
512 498 0
5 497 0
26 497 0
153 497 0
218 497 0
255 497 0
422 497 0
500 497 0
11 496 0
33 496 0
140 496 0
234 496 0
283 496 0
394 496 0
48 495 0
57 495 0
175 495 0
223 495 0
238 495 0
299 495 0
459 495 0
475 495 0
0 494 0
187 494 0
193 494 0
204 494 0
228 494 0
262 494 0
315 494 0
451 494 0
508 494 0
17 493 0
168 493 0
198 493 0
211 493 0
215 493 0
219 493 0
243 493 0
504 493 0
512 493 0
6 492 0
181 492 0
271 492 0
291 492 0
351 492 0
482 492 0
499 492 0
115 491 0
125 491 0
159 491 0
251 491 0
338 491 0
407 491 0
12 490 0
23 490 0
76 490 0
100 490 0
134 490 0
222 490 0
227 490 0
232 490 0
279 490 0
374 490 0
491 490 0
0 489 0
43 489 0
64 489 0
196 489 0
201 489 0
206 489 0
213 489 0
237 489 0
241 489 0
362 489 0
430 489 0
29 488 0
148 488 0
187 488 0
219 488 0
259 488 0
307 488 0
474 488 0
508 488 0
53 487 0
229 487 0
440 487 0
466 487 0
512 487 0
16 486 0
215 486 0
224 486 0
245 486 0
254 486 0
321 486 0
500 486 0
0 485 0
6 485 0
182 485 0
195 485 0
203 485 0
209 485 0
238 485 0
264 485 0
270 485 0
286 485 0
450 485 0
22 484 0
91 484 0
159 484 0
175 484 0
190 484 0
221 484 0
227 484 0
249 484 0
480 484 0
491 484 0
200 483 0
206 483 0
213 483 0
231 483 0
234 483 0
300 483 0
186 482 0
216 482 0
259 482 0
390 482 0
512 482 0
14 481 0
38 481 0
109 481 0
168 481 0
195 481 0
203 481 0
210 481 0
221 481 0
224 481 0
228 481 0
237 481 0
241 481 0
245 481 0
506 481 0
0 480 0
7 480 0
149 480 0
182 480 0
207 480 0
234 480 0
250 480 0
30 479 0
60 479 0
190 479 0
226 479 0
270 479 0
343 479 0
419 479 0
457 479 0
501 479 0
20 478 0
134 478 0
201 478 0
204 478 0
211 478 0
214 478 0
219 478 0
222 478 0
230 478 0
242 478 0
247 478 0
255 478 0
276 478 0
290 478 0
432 478 0
49 477 0
81 477 0
160 477 0
174 477 0
198 477 0
207 477 0
235 477 0
238 477 0
260 477 0
307 477 0
443 477 0
512 477 0
3 476 0
180 476 0
185 476 0
195 476 0
217 476 0
227 476 0
232 476 0
251 476 0
265 476 0
204 475 0
214 475 0
221 475 0
240 475 0
244 475 0
365 475 0
479 475 0
166 474 0
201 474 0
225 474 0
230 474 0
469 474 0
495 474 0
505 474 0
9 473 0
142 473 0
188 473 0
193 473 0
210 473 0
238 473 0
247 473 0
259 473 0
330 473 0
487 473 0
16 472 0
122 472 0
184 472 0
198 472 0
207 472 0
217 472 0
227 472 0
234 472 0
253 472 0
284 472 0
299 472 0
512 472 0
0 471 0
27 471 0
153 471 0
201 471 0
213 471 0
221 471 0
224 471 0
231 471 0
240 471 0
243 471 0
318 471 0
70 470 0
160 470 0
174 470 0
179 470 0
195 470 0
204 470 0
209 470 0
237 470 0
248 470 0
262 470 0
270 470 0
275 470 0
405 470 0
57 469 0
190 469 0
199 469 0
245 469 0
252 469 0
458 469 0
42 468 0
212 468 0
217 468 0
220 468 0
234 468 0
255 468 0
507 468 0
169 467 0
185 467 0
193 467 0
196 467 0
202 467 0
209 467 0
223 467 0
227 467 0
230 467 0
240 467 0
280 467 0
290 467 0
493 467 0
181 466 0
205 466 0
245 466 0
248 466 0
258 466 0
262 466 0
474 466 0
15 465 0
93 465 0
109 465 0
190 465 0
218 465 0
235 465 0
238 465 0
242 465 0
254 465 0
267 465 0
382 465 0
442 465 0
485 465 0
512 465 0
7 464 0
129 464 0
151 464 0
158 464 0
174 464 0
178 464 0
199 464 0
221 464 0
225 464 0
228 464 0
251 464 0
273 464 0
298 464 0
428 464 0
500 464 0
0 463 0
24 463 0
164 463 0
185 463 0
194 463 0
206 463 0
213 463 0
231 463 0
245 463 0
248 463 0
259 463 0
34 462 0
189 462 0
203 462 0
241 462 0
254 462 0
278 462 0
182 461 0
197 461 0
200 461 0
209 461 0
216 461 0
223 461 0
227 461 0
237 461 0
251 461 0
262 461 0
269 461 0
326 461 0
339 461 0
177 460 0
232 460 0
247 460 0
259 460 0
285 460 0
354 460 0
49 459 0
145 459 0
170 459 0
186 459 0
189 459 0
192 459 0
241 459 0
244 459 0
265 459 0
306 459 0
506 459 0
158 458 0
165 458 0
174 458 0
180 458 0
196 458 0
205 458 0
238 458 0
249 458 0
253 458 0
256 458 0
272 458 0
315 458 0
13 457 0
200 457 0
214 457 0
227 457 0
259 457 0
294 457 0
413 457 0
490 457 0
0 456 0
177 456 0
183 456 0
189 456 0
209 456 0
220 456 0
232 456 0
241 456 0
245 456 0
251 456 0
266 456 0
282 456 0
458 456 0
478 456 0
192 455 0
196 455 0
237 455 0
248 455 0
256 455 0
262 455 0
270 455 0
277 455 0
512 455 0
61 454 0
118 454 0
150 454 0
169 454 0
174 454 0
187 454 0
205 454 0
229 454 0
253 454 0
369 454 0
163 453 0
181 453 0
199 453 0
217 453 0
240 453 0
245 453 0
260 453 0
498 453 0
74 452 0
139 452 0
157 452 0
177 452 0
184 452 0
195 452 0
213 452 0
233 452 0
249 452 0
263 452 0
268 452 0
287 452 0
24 451 0
105 451 0
189 451 0
221 451 0
226 451 0
258 451 0
272 451 0
301 451 0
506 451 0
6 450 0
38 450 0
173 450 0
180 450 0
192 450 0
207 450 0
242 450 0
247 450 0
251 450 0
254 450 0
282 450 0
295 450 0
183 449 0
186 449 0
198 449 0
203 449 0
238 449 0
264 449 0
269 449 0
91 448 0
129 448 0
148 448 0
154 448 0
167 448 0
177 448 0
195 448 0
213 448 0
230 448 0
234 448 0
261 448 0
276 448 0
290 448 0
313 448 0
346 448 0
445 448 0
159 447 0
181 447 0
188 447 0
192 447 0
246 447 0
258 447 0
266 447 0
429 447 0
16 446 0
49 446 0
174 446 0
206 446 0
225 446 0
250 446 0
253 446 0
272 446 0
284 446 0
327 446 0
392 446 0
512 446 0
0 445 0
170 445 0
178 445 0
183 445 0
186 445 0
190 445 0
218 445 0
237 445 0
241 445 0
260 445 0
264 445 0
269 445 0
278 445 0
138 444 0
166 444 0
193 444 0
199 444 0
245 444 0
256 444 0
162 443 0
175 443 0
196 443 0
213 443 0
248 443 0
272 443 0
281 443 0
288 443 0
458 443 0
470 443 0
183 442 0
186 442 0
190 442 0
209 442 0
231 442 0
252 442 0
258 442 0
266 442 0
269 442 0
302 442 0
496 442 0
25 441 0
65 441 0
119 441 0
158 441 0
180 441 0
193 441 0
201 441 0
205 441 0
222 441 0
239 441 0
255 441 0
263 441 0
293 441 0
485 441 0
166 440 0
176 440 0
188 440 0
245 440 0
271 440 0
276 440 0
283 440 0
313 440 0
129 439 0
153 439 0
172 439 0
198 439 0
212 439 0
234 439 0
259 439 0
287 439 0
12 438 0
108 438 0
145 438 0
183 438 0
186 438 0
190 438 0
208 438 0
228 438 0
251 438 0
263 438 0
268 438 0
0 437 0
137 437 0
178 437 0
238 437 0
242 437 0
248 437 0
255 437 0
271 437 0
277 437 0
281 437 0
368 437 0
158 436 0
163 436 0
167 436 0
173 436 0
193 436 0
196 436 0
204 436 0
216 436 0
260 436 0
266 436 0
292 436 0
332 436 0
503 436 0
34 435 0
150 435 0
176 435 0
185 435 0
199 435 0
224 435 0
245 435 0
263 435 0
297 435 0
345 435 0
182 434 0
188 434 0
191 434 0
209 434 0
235 434 0
252 434 0
273 434 0
279 434 0
304 434 0
46 433 0
171 433 0
178 433 0
195 433 0
230 433 0
240 433 0
248 433 0
257 433 0
270 433 0
318 433 0
448 433 0
77 432 0
123 432 0
145 432 0
262 432 0
276 432 0
285 432 0
290 432 0
418 432 0
512 432 0
94 431 0
133 431 0
158 431 0
168 431 0
184 431 0
188 431 0
192 431 0
203 431 0
221 431 0
244 431 0
265 431 0
268 431 0
495 431 0
164 430 0
175 430 0
180 430 0
198 430 0
211 430 0
237 430 0
252 430 0
257 430 0
260 430 0
272 430 0
280 430 0
298 430 0
311 430 0
114 429 0
140 429 0
153 429 0
171 429 0
190 429 0
195 429 0
225 429 0
248 429 0
275 429 0
0 428 0
148 428 0
201 428 0
216 428 0
232 428 0
268 428 0
285 428 0
462 428 0
484 428 0
22 427 0
59 427 0
180 427 0
185 427 0
243 427 0
254 427 0
259 427 0
262 427 0
278 427 0
330 427 0
173 426 0
176 426 0
190 426 0
206 426 0
265 426 0
272 426 0
275 426 0
293 426 0
320 426 0
126 425 0
165 425 0
169 425 0
182 425 0
187 425 0
193 425 0
211 425 0
222 425 0
250 425 0
269 425 0
306 425 0
136 424 0
143 424 0
157 424 0
161 424 0
198 424 0
233 424 0
237 424 0
246 424 0
254 424 0
257 424 0
262 424 0
148 423 0
173 423 0
184 423 0
189 423 0
216 423 0
228 423 0
275 423 0
281 423 0
288 423 0
501 423 0
11 422 0
110 422 0
178 422 0
201 422 0
249 422 0
260 422 0
264 422 0
268 422 0
272 422 0
351 422 0
434 422 0
512 422 0
42 421 0
153 421 0
167 421 0
175 421 0
181 421 0
186 421 0
191 421 0
194 421 0
197 421 0
242 421 0
254 421 0
257 421 0
300 421 0
140 420 0
170 420 0
205 420 0
233 420 0
237 420 0
246 420 0
266 420 0
270 420 0
102 419 0
163 419 0
178 419 0
212 419 0
221 419 0
251 419 0
276 419 0
387 419 0
86 418 0
147 418 0
159 418 0
168 418 0
173 418 0
182 418 0
189 418 0
195 418 0
201 418 0
217 418 0
227 418 0
256 418 0
262 418 0
284 418 0
331 418 0
0 417 0
121 417 0
[...]
CELL_DATA 9664
COLOR_SCALARS lut 1
0.0410674
0.0524086
0.0624435
0.0770581
0.0924457
0.108199
0.132096
0.160091
0.200107
0.240088
0.29165
0.322011
0.354322
0.356361
0.336655
0.292172
0.261806
0.223187
0.206697
0.191556
0.169274
0.159302
0.148482
0.140287
0.131099
0.120386
0.115981
0.112455
0.110035
0.108663
0.109255
0.110315
0.112175
0.11487
0.119201
0.123363
0.129625
0.138648
0.152668
0.16217
0.174461
0.200164
0.220208
0.243155
0.261501
0.28063
0.302931
0.32522
0.347889
0.377282
0.423716
0.473937
0.458025
0.419323
0.352144
0.304156
0.268143
0.232128
0.208117
0.168096
0.148088
0.124112
0.10424
0.088553
0.0696177
0.0524086
0.0387047
0.0328773
0.0365519
0.0481573
0.0453065
0.0537527
0.0821137
0.129731
0.135106
0.118022
0.463815
0.0708178
0.0602213
0.0428897
0.0667725
0.193323
0.149241
0.132469
0.123562
0.196717
0.145531
0.101322
0.121247
0.180066
0.123953
0.121449
0.121845
0.124406
0.128731
0.145899
0.157805
0.185122
0.213759
0.181688
0.0436331
0.0463893
0.0537527
0.0629771
0.0850272
0.105013
0.173869
0.209999
0.234027
0.335294
0.166775
0.131713
0.12272
0.12293
0.221787
0.405961
0.266062
0.129395
0.0773197
0.0629772
0.0537527
0.272973
0.230157
0.140604
0.176891
0.256615
0.295963
0.105016
0.0809733
0.287054
0.253996
0.367168
0.154476
0.0524086
0.0556365
0.0636518
0.0735746
0.150902
0.392144
0.224115
0.157961
0.131273
0.132747
0.473815
0.179486
0.101006
0.0809734
0.105218
0.134746
0.18024
0.355341
0.210026
0.190568
0.138473
0.132927
0.136976
0.164377
0.403091
0.439404
0.130537
0.178282
0.154169
0.130988
0.132555
0.14325
0.182227
0.204134
0.299109
0.382187
0.478789
0.257777
0.213565
0.077519
0.0624435
0.0659916
0.234763
0.274885
0.327755
0.227135
0.326954
0.101042
0.0782921
0.105218
0.149366
0.136995
0.353323
0.161711
0.140339
0.411388
0.40062
0.216034
0.171419
0.130874
0.134235
0.160971
0.204598
0.26221
0.525522
0.350398
0.245179
0.141196
0.13218
0.150374
0.378756
0.254492
0.19293
0.14496
0.105072
0.0894355
0.0770581
0.0970808
0.18949
0.268469
0.127875
0.180959
0.448056
0.126809
0.12659
0.224266
0.311262
0.132535
0.260641
0.549212
0.29081
0.326907
0.216683
0.123552
0.135188
0.309163
0.310917
0.246138
0.0924457
0.181169
0.160832
0.127424
0.120899
0.20584
0.357564
0.348474
0.105319
0.167912
0.242867
0.140779
0.113512
0.112618
0.113888
0.139695
0.125732
0.0963603
0.121263
0.201003
0.239016
0.301751
0.470697
0.232436
0.153131
0.415179
0.384562
0.277763
0.16098
0.43859
0.539371
0.156853
0.210508
0.428919
0.461815
0.361767
0.100695
0.101429
0.104016
0.271126
0.552877
0.20092
0.112167
0.303411
0.388067
0.132438
0.113567
0.100863
0.0939913
0.105929
0.115299
0.521087
0.460304
0.248314
0.325828
0.1677
0.0904634
0.186464
0.367466
0.287951
0.129434
0.355205
0.0870773
0.431512
0.326743
0.120125
0.19378
0.0804932
0.0820003
0.112884
0.15303
0.418196
0.173631
0.128103
0.149668
0.178432
0.118248
0.0890368
0.0785184
0.0876138
0.200399
0.232713
0.308874
0.402668
0.233165
0.502515
0.293404
0.210038
0.135954
0.0736835
0.0732493
0.119028
0.282111
0.228052
0.0894245
0.0745213
0.0688429
0.0700197
0.0723759
0.368529
0.144419
0.065822
0.157525
0.630281
0.140089
0.204462
0.324757
0.488859
0.238261
0.100199
0.0732703
0.0636022
0.0634541
0.062865
0.0620594
0.0682573
0.0762469
0.0881911
0.165816
0.148088
0.174254
0.344966
0.153223
0.0634446
0.0610466
0.103204
0.296366
0.4282
0.112196
0.0567962
0.205525
0.520031
0.560461
0.407949
0.197374
0.248536
0.418803
0.069056
0.0628152
0.0566186
0.0563793
0.0568886
0.0562933
0.0537335
0.0672732
0.082433
0.115659
0.239325
0.329522
0.514259
0.393946
0.519554
0.273934
0.180499
0.0747828
0.0573639
0.0534977
0.0567359
0.135029
0.414781
0.475815
0.160092
0.173862
0.142333
0.1193
0.0816245
0.0548945
0.0511246
0.0501613
0.0893209
0.156903
0.0581423
0.0544106
0.0538983
0.0549521
0.0629079
0.60936
0.329865
0.215688
0.061534
0.0512746
0.0483764
0.383183
0.248969
0.198396
0.211768
0.38501
0.0951057
0.0791934
0.0551785
0.0494879
0.0653217
0.110203
0.513598
0.296393
0.251741
0.491
0.106254
0.0649241
0.056228
0.0570349
0.0505338
0.0473766
0.0813222
0.258067
0.373087
0.180102
0.184104
0.315623
0.295366
0.0599303
0.0582497
0.0570929
0.0544459
0.0485913
0.0495272
0.0528164
0.477471
0.518625
0.235496
0.145424
0.120005
0.068235
0.0586855
0.0591185
0.0480222
0.0604585
0.110544
0.151522
0.181082
0.66497
0.471163
0.0769217
0.0620339
0.0531689
0.0683239
0.45832
0.40751
0.0648209
0.0658618
0.0646409
0.0506046
0.0745946
0.213759
0.160521
0.0855805
0.0676678
0.0645059
0.0625847
0.0659695
0.0645976
0.0595398
0.0559889
0.0496626
0.193422
0.268197
0.288212
0.0969051
0.0657772
0.0506477
0.0534018
0.0781817
0.0934869
0.396005
0.274617
0.609443
0.571425
0.0690751
0.075266
0.055396
0.0527175
0.0503914
0.0629088
0.110898
0.715891
0.547244
0.340464
0.208117
0.238488
0.46301
0.267655
0.215772
0.121568
0.102893
0.0656127
0.0768099
0.0716152
0.0671478
0.0545674
0.135243
0.315092
0.609379
0.26288
0.21612
0.331967
0.172568
0.07523
0.0644681
0.0744136
0.0814651
0.0658306
0.0500481
0.0503006
0.0716816
0.391455
0.0659439
0.0730624
0.0539848
0.0560795
0.151852
0.0788973
0.0669278
0.0707962
0.0844099
0.0903433
0.085746
0.0793221
0.0618157
0.0503959
0.0752065
0.102654
0.532531
0.598425
0.0946115
0.0737645
0.049486
0.0630934
0.182579
0.65765
0.484345
0.286088
0.124331
0.0649989
0.0621001
0.0624557
0.0585246
0.0532801
0.0791826
0.347287
0.254055
0.188388
0.147623
0.101769
0.07765
0.0673594
0.0861773
0.0669471
0.0484765
0.0488471
0.0523284
0.104344
0.426814
0.296116
0.0766302
0.104281
0.0946532
0.0560266
0.225861
0.708497
0.345026
0.244131
0.0833853
0.0646726
0.0587081
0.0999161
0.109097
0.0872075
0.0640356
0.0548636
0.0474271
0.0733484
0.145986
0.523431
0.416115
0.0604358
0.0683507
0.0771315
0.0506064
0.0481744
0.0585912
0.08539
0.116633
0.248135
0.566864
0.516106
0.223859
0.114717
0.0908889
0.0562994
0.0945723
0.101568
0.0464875
0.740006
0.14395
0.0633875
0.0773766
0.120441
0.0733481
0.0591224
0.0505428
0.317399
0.633315
0.292936
0.175149
0.074246
0.0557867
0.0657476
0.11867
0.097624
0.0516305
0.0546467
0.0691336
0.156999
0.380243
0.62309
0.0536849
0.126698
0.119178
0.0459205
0.0813727
0.240193
0.286073
0.290068
0.462849
0.0872778
0.0610409
0.0577048
0.106887
0.0739026
0.058852
0.0500631
0.0461936
0.123852
0.195381
0.0533076
0.0507724
0.0751864
0.0936526
0.0900216
0.0514379
0.0650823
0.687825
0.347456
0.216561
0.183031
0.113426
0.0680857
0.0651262
0.12783
0.119016
0.106481
0.045647
0.089821
0.159124
0.317124
0.658953
0.625007
0.154138
0.0551116
0.05006
0.0565962
0.0672833
0.0441933
0.0525432
0.700533
0.356109
0.54042
0.0778968
0.107437
0.136933
0.0573664
0.0504493
0.0687956
0.122013
0.450478
0.8331
0.284151
0.288133
0.0951944
0.0618645
0.0500818
0.0481779
0.0518576
0.142817
0.103916
0.0891694
0.0435123
0.0461742
0.0569725
0.0910747
0.258219
0.113984
0.0585708
0.0796756
0.0768571
0.046945
0.133206
0.0714943
0.0682178
0.135386
0.0685346
0.0629437
0.100325
0.134963
0.580461
0.513628
0.0486666
0.0470093
0.0510852
0.122188
0.131449
0.0578687
0.0452103
0.046178
0.052414
0.210847
0.372134
0.425864
0.646597
0.382297
0.150508
0.0539673
0.0582079
0.0885152
0.105984
0.151205
0.10551
0.0513532
0.0426517
0.15749
0.437133
0.110278
0.0661228
0.0477603
0.0847518
0.0554309
0.0730446
0.104366
0.276703
0.283541
0.170054
0.0818286
0.0761696
0.135395
0.127034
0.0449911
0.122891
0.366903
0.502068
0.201475
0.0476773
0.0462223
0.0506532
0.120096
0.146021
0.0661916
0.0419139
0.0464432
0.320079
0.231954
0.0583767
0.115616
0.100749
0.0780157
0.0547147
0.0527973
0.0738488
0.0914608
0.821395
0.141628
0.119612
0.101694
0.0759384
0.0583688
0.068711
0.103001
0.148874
0.0443341
0.0428453
0.146525
0.420279
0.359951
0.500484
0.171451
0.0641632
0.0460398
0.0810369
0.154583
0.0913797
0.0417873
0.1734
0.570954
0.0484822
0.0475737
0.0530932
0.125232
0.12798
0.0660941
0.0578954
0.0812607
0.212592
0.576127
0.0814598
0.056944
0.0654968
0.142615
0.111027
0.0810935
0.0511888
0.0494663
0.297023
0.677071
0.71948
0.28228
0.179476
0.0427396
0.0691497
0.110147
0.135865
0.828381
0.340173
0.606401
0.224
0.128911
0.0904575
0.0459171
0.0476227
0.0560662
0.0992733
0.154219
0.0961151
0.0425109
0.045927
0.421577
0.103734
0.0637382
0.0505439
0.0776776
0.13282
0.1197
0.0665459
0.051451
0.0453385
0.0561674
0.0874065
0.179959
0.253174
0.334466
0.186527
0.139765
0.0759141
0.0512018
0.0660952
0.149034
0.0801801
0.0672483
0.355716
0.153028
0.0905812
0.146264
0.131614
0.0473866
0.113119
0.619072
0.494793
0.464606
0.670877
0.0485328
0.0448557
0.0953861
0.0585833
0.0467321
0.0433828
0.0814226
0.373123
0.0642734
0.0559831
0.051183
0.111693
0.0441269
0.0594246
0.0702013
0.156473
0.307376
0.234346
0.0868341
0.0743844
0.0447507
0.045849
0.0593429
0.130094
0.145686
0.0686816
0.0515807
0.227846
0.183723
0.155298
0.108032
0.0959355
0.0774252
0.119609
0.10776
0.0795345
0.0558667
0.0490721
0.043498
0.133092
0.0587081
0.0432064
0.0487683
0.140232
0.130652
0.0737065
0.100118
0.134504
0.42188
0.424511
0.324427
0.0467334
0.0889845
0.0663461
0.0441075
0.0444786
0.0513114
0.0634544
0.580825
0.799651
0.38018
0.600074
0.108514
0.0694122
0.0506187
0.0426926
0.0439806
0.0533072
0.0622133
0.0728501
0.0841053
0.0522365
0.0468377
0.200274
0.152597
0.0594498
0.103794
0.10809
0.0959566
0.0699278
0.0481536
0.0586598
0.374539
0.0731395
0.0434101
0.125966
0.134121
0.0554591
0.0830492
0.967908
0.574239
0.117545
0.0796603
0.0587315
0.0491168
0.0409977
0.0489459
0.0654174
0.0870924
0.132678
0.120019
0.0454892
0.0435838
0.122364
0.382554
0.396892
0.236241
0.179702
0.0564024
0.0777209
0.0427798
0.0478526
0.0995092
0.170026
0.26592
0.130808
0.0959123
0.0803605
0.0591315
0.0485015
0.0431181
0.0429081
0.106781
0.0865381
0.0617594
0.0553499
0.045718
0.0560568
0.0662106
0.145788
0.509146
0.270695
0.199539
0.0665843
0.0510084
0.0398584
0.0783212
0.116897
0.123632
0.048266
0.0424873
0.0455056
0.556581
0.142826
0.107729
0.0570299
0.0423539
0.0401048
0.0499219
0.0594917
0.0681805
0.090987
0.106425
0.0935414
0.0715645
0.0635065
0.052279
0.0941588
0.227688
0.0389334
0.122227
0.0542449
0.0429454
0.11967
0.335814
0.458355
0.633838
0.740046
0.0694893
0.0467174
0.0410714
0.0432738
0.0544801
0.103145
0.0472966
0.0424962
0.0415362
0.063617
0.76791
0.465822
0.481898
0.0758102
0.0521861
0.0386298
0.0640102
0.0723279
0.0847469
0.147884
0.195073
0.972115
0.198601
0.0557025
0.0362956
0.0480837
0.0821295
0.1131
0.0828387
0.0610751
0.0498122
0.0447536
0.0518594
0.10446
0.709318
0.165325
0.140056
0.0810473
0.0606946
0.0403812
0.0372153
0.0358857
0.036377
0.0427949
0.072297
0.104561
0.0934294
0.0414956
0.0419171
0.064817
0.288235
0.104128
0.0448329
0.0528179
0.0589836
0.0987375
0.0499639
0.0506242
0.42391
0.235149
0.0482846
0.0388357
0.0810749
0.105798
0.0439525
0.0416176
0.0414942
0.0469847
0.123926
0.301214
0.681057
0.0776714
0.0562941
0.0331938
0.0345636
0.0373025
0.100841
0.073146
0.058097
0.044482
0.078174
0.0983001
0.443949
0.0639642
0.0406072
0.0330455
0.0324404
0.043402
0.0530219
0.0624879
0.0689639
0.0473624
0.0411981
0.0543459
0.0643232
0.167675
0.242257
0.435208
0.605843
0.328717
0.191791
0.160326
0.114537
0.0907197
0.0445305
0.0334928
0.0383217
0.0804225
0.0895496
0.0834681
0.0597386
0.0423855
0.0505643
0.200786
0.889486
0.132613
0.0302662
0.0332558
0.0468552
0.094896
0.0662566
0.048466
0.0461944
0.127764
0.0694436
0.0581049
0.0326255
0.0306245
0.0390225
0.0509632
0.0595222
0.0851758
0.0411421
0.0592922
0.0789547
0.096701
0.153805
0.585035
0.0470002
0.0347726
0.0292878
0.0286921
0.028788
0.0346388
0.0672659
0.0855931
0.0496734
0.0432872
0.0451062
0.0921458
0.0292668
0.0298685
0.0391205
0.0423104
0.0732306
0.0847086
0.0699422
0.0621308
0.0411062
0.055264
0.0759045
0.503194
0.387907
0.171502
0.0680094
0.0497794
0.0392721
0.029668
0.0273558
0.0283957
0.0350738
0.0451962
0.0528279
0.044067
0.118066
0.598619
0.512617
0.211844
0.133011
0.102718
0.0305696
0.0274357
0.0268631
0.0271005
0.0308931
0.0471378
0.0552761
0.0611654
0.0434372
0.0704238
0.0921771
0.106252
0.142003
0.203253
0.240237
0.327827
0.610227
0.429536
0.735402
0.247579
0.0532378
0.0334461
0.0280316
0.0367257
0.0757717
0.0621465
0.0555581
0.0462443
0.0413676
0.0531418
0.171895
0.0401576
0.0276659
0.0262421
0.0315758
0.0337768
0.0393454
0.0474213
0.0635371
0.0709952
0.0712823
0.0673335
0.0422921
0.0487818
0.0677068
0.943948
0.711575
0.0610843
0.0294103
0.0257642
0.0267437
0.0292068
0.0360972
0.0552955
0.0483665
0.045153
0.0621561
0.0957684
0.128311
0.682214
0.311565
0.17185
0.135244
0.0901016
0.0717987
0.0457251
0.0310117
0.0263132
0.0256284
0.0273829
0.0303072
0.0338196
0.0412266
0.0479095
0.0569057
0.043706
0.11703
0.112797
0.0255213
0.0283065
0.0319085
0.0364891
0.0553456
0.0627223
0.0630322
0.0591358
0.0424938
0.0448236
0.0613352
0.0888436
0.546
0.0493502
0.0381637
0.032422
0.0265097
0.0253444
0.0258063
0.0338522
0.0403318
0.0569684
0.0471317
0.0441488
0.0511026
0.0755546
0.154938
0.183956
0.0754135
0.0586675
0.0255435
0.0252966
0.0267396
0.0287668
0.0305078
0.0322724
0.0433708
0.057704
0.0561171
0.0492796
0.0430624
0.105771
0.224608
0.256317
0.212314
0.122349
0.0923286
0.0278163
0.0251617
0.0260857
0.0276695
0.0341985
0.0508015
0.0490106
0.0683222
0.091268
0.303248
0.438882
0.172982
0.0456137
0.0376527
0.0319782
0.0252454
0.0253175
0.0257141
0.0312519
0.0323597
0.0444654
0.0445969
0.0431292
0.50665
0.650949
0.467897
0.0749177
0.0581603
0.0265843
0.0254978
0.0298773
0.0316321
0.0332113
0.0355414
0.0391128
0.0467763
0.0451103
0.0494776
0.0644595
0.0833655
0.713997
0.87429
0.560462
0.571859
0.0969187
0.0276928
0.0254879
0.0258472
0.0270474
0.0288772
0.0307395
0.0315516
0.0316043
0.0470911
0.0473166
0.0451486
0.0436278
0.0430891
0.130666
0.15009
0.169831
0.194269
0.492846
0.322873
0.14143
0.115414
0.048485
0.0398066
0.0292493
0.0254592
0.0280044
0.0311764
0.0310219
0.0320505
0.0343355
0.0396178
0.0617068
0.224461
0.0328795
0.0261927
0.0254859
0.0259414
0.0265734
0.0311281
0.0304065
0.0352807
0.0403813
0.0429309
0.0426225
0.0492353
0.0556959
0.0756002
0.26914
0.418231
0.235358
0.0647672
0.0530717
0.0270751
0.0256591
0.0264382
0.0288068
0.0301376
0.0306688
0.0298909
0.0309279
0.0403345
0.045491
0.106389
0.591405
0.19557
0.0812019
0.0258712
0.0278547
0.030919
0.0310801
0.0292744
0.0309154
0.035511
0.0395508
0.0408474
0.091604
0.12498
0.711265
0.706691
0.271652
0.0991766
0.0391126
0.0290899
0.0267602
0.0275767
0.0289362
0.03022
0.0300729
0.028655
0.035963
0.039056
0.0450499
0.0549597
0.070584
0.154878
0.118061
0.0652001
0.0499138
0.0326046
0.0273285
0.025929
0.025943
0.0266435
0.0311862
0.0310274
0.028619
0.0282228
0.0306193
0.0360039
0.0423702
0.0661551
0.0820988
0.209229
0.371271
0.0818113
0.0264129
0.0275803
0.0285936
0.0305357
0.0294888
0.0277699
0.0280096
0.0318001
0.0390568
0.159293
0.039539
0.0285794
0.0269729
0.0315719
0.0285285
0.0294502
0.0348238
0.0366307
0.046909
0.0526533
0.637803
0.314487
0.0934927
0.0540189
0.0303864
0.0268608
0.0264181
0.0285391
0.0301096
0.0316413
0.0321926
0.0308733
0.027634
0.0270385
0.0280405
0.0309637
0.0324388
0.0617712
0.0833981
0.108555
0.379449
0.224067
0.0733265
0.0343738
0.0264865
0.028074
0.0294441
0.0297914
0.0266947
0.0270518
0.0289604
0.039594
0.0458155
0.0723965
0.0989027
0.126366
0.194766
0.323425
0.595014
0.528479
0.141831
0.115759
0.0273653
0.0274876
0.0288967
0.0315099
0.0318189
0.027647
0.0274429
0.0301316
0.0341077
0.0535131
0.0610814
1
0.177579
0.054713
0.0395557
0.0299524
0.0269923
0.0306402
0.0325859
0.0301803
0.0284507
0.0265609
0.0262729
0.0266546
0.0277143
0.0314271
0.0375758
0.0441923
0.156419
0.250587
0.803206
0.433103
0.0269322
0.0275644
0.0290129
0.0301797
0.0314843
0.0288878
0.122767
0.292211
0.527749
0.624442
0.510474
0.599907
0.0684894
0.0462876
0.03309
0.0283784
0.0272737
0.0285393
0.0297355
0.0323363
0.0319132
0.0268421
0.0260263
0.0262153
0.0275809
0.0302795
0.0418999
0.0559537
0.0706113
0.0965263
0.112851
0.1464
0.12024
0.0853541
0.05546
0.0379742
0.0296569
0.0273472
0.0313053
0.0296267
0.0279577
0.0262331
0.0267174
0.0281405
0.0354073
0.0860742
0.191128
0.236601
0.2038
0.027613
0.0271924
0.0278823
0.0296754
0.0305281
0.0259706
0.0318064
0.489617
0.0651217
0.0302725
0.0283474
0.0273953
0.0285647
0.0315871
0.032008
0.0314775
0.0301702
0.0271386
0.0262547
0.0261064
0.0265817
0.0277873
0.0289103
0.0393455
0.0460792
0.0541597
0.0698514
0.150701
0.223453
0.414764
0.100854
0.0409248
0.0348996
0.0275185
0.0302379
0.0287718
0.0259698
0.02734
0.129131
0.180623
0.283653
0.172448
0.0293861
0.0280304
0.0275049
0.0280612
0.0292106
0.0314065
0.031655
0.031115
0.029944
0.0271154
0.0259686
0.0265723
0.0282229
0.0294866
0.0836961
0.110189
0.39908
0.526871
0.562518
0.374117
0.133922
0.0791518
0.062011
0.0510656
0.0278532
0.0294213
0.0303193
0.0311619
0.0261237
0.0262847
0.0278046
0.0330652
0.0399271
0.0501977
0.0701024
0.111867
0.03076
0.0288881
0.0280024
0.0309463
0.0313983
0.0307336
0.029624
0.0282408
0.0270031
0.0259245
0.0272503
0.0290848
0.152019
0.264383
0.0412404
0.0280309
0.0284779
0.0295724
0.0304477
0.0313475
0.0260488
0.0258161
0.0268802
0.0282708
0.0359991
0.0570435
0.0997134
0.226145
0.729122
0.894339
0.708628
0.0893574
0.0553843
0.0337063
0.0287056
0.0282004
0.0292151
0.0312694
0.0304047
0.0284428
0.0262928
0.0262631
0.0277425
0.0302248
0.0422046
0.0681163
0.0840673
0.179947
0.420457
0.0295419
0.0285178
0.0305464
0.0309078
0.0272973
0.0259463
0.0283028
0.0289679
0.123075
0.206561
0.561972
0.239096
0.179289
0.152652
0.12642
0.0606991
0.0472146
0.0306933
0.028703
0.0284958
0.0290751
0.0298825
0.0310966
0.0312128
0.0286281
0.0264138
0.0257446
0.0277278
0.0297549
0.0328466
0.03747
0.0536317
0.145168
0.356643
0.518215
0.316529
0.0357964
0.0307674
0.0298872
0.0271401
0.0258536
0.0256528
0.0261699
0.0269492
0.0289273
0.0442212
0.0723445
0.102802
0.475794
0.202742
0.070287
0.0407927
0.0301182
0.0287775
0.0295932
0.030707
0.0313252
0.028444
0.0286448
0.0602703
0.521372
0.499056
0.621781
0.0963187
0.0537704
0.0293518
0.0287434
0.0291856
0.0314461
0.0290166
0.0274003
0.026137
0.0255315
0.0258171
0.0264808
0.0273946
0.0282855
0.0293143
0.0303312
0.0368439
0.0849336
0.121662
0.165998
0.61454
0.561106
0.1249
0.0362065
0.0318507
0.0289238
0.0307281
0.0314167
0.0312631
0.0304251
0.0290008
0.0324649
0.0432231
0.0523023
0.236256
0.268477
0.537206
0.788535
0.0791328
0.0622951
0.0432842
0.0300238
0.0296289
0.0317014
0.0261505
0.0254602
0.0256794
0.026893
0.0278705
0.0628521
0.102857
0.145353
0.448416
0.453827
0.217402
0.142344
0.0331902
0.0293081
0.0288774
0.0304511
0.0314397
0.029555
0.0277362
0.0266482
0.0255997
0.0299446
0.0378505
0.0748117
0.213666
0.328065
0.167127
0.0948643
0.0528623
0.0364306
0.0308459
0.0288598
0.0310146
0.0286196
0.0256863
0.0262567
0.0275026
0.0289431
0.0294212
0.0330431
0.463069
0.331336
0.0664582
0.0412321
0.0291006
0.0297626
0.0313398
0.0325205
0.0325144
0.0302409
0.0270143
0.0260199
0.0256933
0.0284091
0.0469692
0.0571582
0.0871421
0.381453
0.0779408
0.0312787
0.0299153
0.0291561
0.0307925
0.0278867
0.0265676
0.0258749
0.0264573
0.0273798
0.0299025
0.0307593
0.0368482
0.0684699
0.130472
0.24416
0.189063
0.125344
0.100038
0.0531651
0.036761
0.0333516
0.0291294
0.0312535
0.0262473
0.0294633
0.0300638
0.109956
0.154938
0.328216
0.041595
0.0295717
0.0301262
0.0332662
0.0336996
0.0298138
0.0275286
0.0267803
0.0263908
0.0269187
0.0286614
0.0303519
0.0313406
0.0483086
0.402397
0.441619
0.570889
0.143048
0.0782145
0.0309425
0.0295246
0.0298108
0.031865
0.0330584
0.0313304
0.0285651
0.0269229
0.0303463
0.030972
0.0309152
0.0345867
0.0397654
0.0620384
0.0887744
0.184438
0.214427
0.0642413
0.0534369
0.0372298
0.0339454
0.0301645
0.0299158
0.0275661
0.0270624
0.0285762
0.133044
0.546393
0.103698
0.0309101
0.0302405
0.0312472
0.0288748
0.0275803
0.0276231
0.0283736
0.0314677
0.0322713
0.0465546
0.0731477
0.245581
0.282733
0.896348
0.296628
0.283201
0.19194
0.0413336
0.0317624
0.030371
0.0347377
0.0363106
0.0342146
0.028634
0.0278755
0.030356
0.0326372
0.0318839
0.0332885
0.0386742
0.11091
0.553084
0.0769582
0.0605389
0.0504437
0.0310533
0.0308078
0.0367312
0.0328985
0.0309562
0.0283758
0.0288681
0.0589944
0.0900625
0.450343
0.502524
0.690035
0.567927
0.438367
0.335618
0.238628
0.124564
0.0372043
0.033162
0.0329858
0.0351216
0.0292254
0.0312858