# vtk DataFile Version 1.0
Unstructured Grid Example
ASCII

DATASET UNSTRUCTURED_GRID
POINTS 37295 float
52 168 0
42 25 0
149 192 0
198 222 0
470 522 0
269 551 0
491 437 0
453 314 0
343 82 0
14 2 0
63 34 0
84 145 0
102 205 0
77 157 0
52 200 0
47 233 0
63 282 0
150 587 0
238 352 0
213 549 0
165 304 0
221 262 0
259 456 0
326 527 0
349 630 0
510 643 0
363 596 0
488 520 0
431 377 0
498 306 0
427 253 0
314 335 0
322 199 0
381 57 0
416 35 0
424 28 0
59 24 0
11 154 0
118 161 0
192 152 0
158 145 0
159 12 0
209 6 0
229 4 0
260 12 0
266 148 0
279 85 0
227 59 0
211 111 0
209 205 0
248 187 0
252 195 0
225 292 0
231 284 0
184 238 0
169 220 0
88 277 0
150 216 0
123 183 0
5 257 0
51 179 0
60 259 0
75 307 0
5 354 0
11 332 0
60 334 0
77 507 0
62 408 0
37 429 0
39 599 0
33 640 0
4 654 0
90 619 0
106 655 0
53 600 0
53 568 0
135 638 0
165 642 0
145 655 0
260 655 0
267 655 0
255 592 0
198 579 0
200 415 0
175 409 0
171 487 0
119 329 0
111 346 0
125 355 0
148 383 0
300 414 0
329 412 0
381 382 0
385 500 0
381 457 0
292 430 0
286 547 0
318 623 0
332 652 0
333 645 0
336 602 0
392 571 0
397 560 0
407 482 0
403 572 0
410 650 0
419 529 0
493 513 0
429 494 0
445 491 0
498 428 0
437 415 0
404 466 0
488 399 0
459 368 0
489 407 0
502 383 0
507 260 0
517 228 0
519 191 0
469 209 0
478 236 0
469 260 0
425 333 0
404 358 0
321 347 0
302 336 0
294 248 0
293 243 0
356 302 0
375 282 0
325 104 0
287 124 0
285 115 0
291 101 0
307 61 0
308 88 0
308 53 0
412 10 0
384 44 0
395 139 0
515 103 0
415 50 0
512 16 0
491 9 0
2 13 0
12 3 0
74 32 0
37 71 0
12 41 0
0 62 0
4 76 0
17 112 0
18 147 0
38 149 0
18 109 0
71 84 0
58 74 0
82 117 0
76 129 0
82 143 0
93 111 0
119 153 0
108 101 0
92 95 0
114 49 0
83 88 0
82 82 0
86 7 0
84 6 0
115 44 0
119 45 0
147 4 0
128 26 0
127 52 0
157 20 0
161 13 0
181 4 0
213 2 0
236 19 0
258 16 0
234 90 0
229 58 0
218 73 0
203 80 0
186 92 0
247 114 0
251 93 0
257 126 0
225 114 0
218 117 0
187 145 0
178 139 0
169 124 0
184 90 0
166 107 0
148 113 0
127 129 0
129 150 0
126 203 0
141 206 0
128 219 0
151 224 0
159 203 0
161 172 0
228 168 0
245 156 0
246 159 0
259 180 0
199 229 0
195 221 0
170 228 0
223 253 0
225 235 0
226 254 0
257 260 0
256 303 0
225 300 0
222 296 0
158 302 0
154 293 0
163 288 0
150 301 0
138 284 0
152 310 0
131 316 0
119 306 0
110 324 0
71 307 0
85 259 0
85 242 0
100 294 0
106 289 0
118 238 0
105 218 0
86 169 0
75 202 0
71 155 0
79 210 0
78 231 0
48 259 0
47 226 0
58 178 0
3 206 0
44 239 0
22 254 0
33 261 0
9 265 0
10 273 0
60 266 0
13 312 0
66 322 0
12 290 0
5 289 0
51 324 0
26 351 0
25 382 0
78 370 0
77 365 0
74 328 0
102 364 0
115 345 0
118 333 0
109 382 0
113 397 0
107 383 0
81 373 0
103 426 0
132 422 0
134 432 0
123 434 0
116 432 0
92 437 0
61 468 0
51 438 0
57 413 0
49 407 0
44 415 0
43 436 0
17 451 0
2 465 0
0 477 0
23 498 0
54 491 0
60 511 0
6 575 0
0 514 0
0 599 0
16 606 0
3 629 0
27 647 0
51 644 0
36 639 0
39 610 0
77 583 0
60 632 0
80 646 0
104 559 0
125 573 0
113 550 0
94 545 0
119 539 0
104 542 0
73 531 0
74 497 0
74 470 0
78 472 0
106 512 0
173 495 0
175 546 0
183 478 0
181 558 0
181 566 0
141 592 0
137 624 0
164 633 0
167 652 0
193 653 0
193 610 0
203 609 0
194 595 0
207 549 0
229 560 0
224 592 0
238 644 0
253 627 0
258 615 0
255 606 0
254 536 0
231 547 0
220 549 0
229 499 0
231 515 0
233 497 0
235 488 0
250 467 0
254 455 0
246 434 0
222 427 0
244 442 0
244 445 0
214 462 0
207 463 0
150 443 0
145 460 0
148 439 0
142 424 0
167 438 0
171 442 0
194 373 0
190 401 0
181 386 0
171 359 0
163 353 0
183 345 0
209 367 0
211 333 0
213 373 0
210 401 0
214 407 0
249 404 0
226 393 0
228 345 0
280 389 0
267 390 0
282 421 0
289 431 0
287 429 0
287 385 0
290 384 0
354 391 0
358 398 0
345 417 0
352 434 0
339 413 0
298 436 0
301 467 0
313 447 0
333 468 0
358 497 0
343 517 0
312 508 0
309 515 0
294 494 0
283 475 0
295 470 0
259 472 0
264 467 0
265 483 0
268 502 0
263 518 0
280 530 0
283 537 0
290 544 0
280 537 0
278 542 0
272 589 0
266 592 0
270 620 0
281 635 0
292 648 0
276 632 0
287 570 0
322 579 0
306 580 0
295 628 0
343 615 0
358 618 0
331 613 0
353 594 0
343 570 0
333 569 0
292 572 0
338 519 0
293 526 0
343 541 0
364 520 0
380 515 0
402 495 0
410 486 0
430 542 0
405 539 0
392 526 0
398 542 0
377 561 0
383 609 0
416 640 0
414 626 0
432 607 0
423 565 0
433 555 0
453 557 0
445 590 0
463 645 0
470 628 0
506 608 0
483 605 0
488 543 0
477 535 0
454 552 0
459 512 0
437 486 0
494 532 0
494 486 0
476 468 0
455 465 0
493 462 0
447 456 0
441 451 0
448 464 0
442 478 0
418 466 0
418 479 0
404 481 0
393 460 0
368 451 0
405 464 0
433 454 0
452 440 0
409 429 0
369 401 0
371 400 0
376 401 0
382 378 0
409 395 0
481 382 0
452 405 0
474 432 0
483 433 0
517 446 0
519 423 0
482 376 0
522 364 0
512 347 0
511 352 0
502 316 0
507 347 0
522 328 0
494 248 0
522 234 0
496 230 0
486 258 0
483 225 0
481 295 0
493 312 0
469 302 0
450 291 0
462 262 0
412 278 0
389 271 0
446 312 0
392 315 0
404 339 0
462 338 0
478 324 0
451 340 0
427 363 0
420 357 0
413 342 0
375 358 0
365 357 0
356 312 0
345 324 0
353 333 0
347 337 0
337 339 0
326 374 0
308 333 0
274 360 0
279 319 0
277 306 0
304 327 0
337 305 0
299 291 0
298 302 0
276 298 0
275 266 0
278 240 0
282 252 0
285 227 0
352 283 0
336 290 0
361 292 0
365 270 0
381 265 0
374 233 0
368 225 0
348 191 0
345 95 0
367 90 0
334 99 0
331 167 0
327 167 0
326 160 0
276 160 0
259 177 0
267 146 0
281 86 0
293 139 0
301 98 0
303 60 0
295 49 0
286 77 0
260 37 0
264 22 0
297 22 0
303 28 0
350 41 0
320 51 0
341 60 0
360 43 0
356 60 0
352 42 0
351 27 0
369 15 0
396 14 0
398 22 0
388 48 0
398 74 0
372 51 0
367 35 0
367 119 0
368 152 0
369 181 0
402 132 0
406 152 0
379 104 0
391 85 0
436 91 0
427 130 0
452 217 0
522 213 0
522 216 0
478 147 0
502 142 0
487 43 0
476 74 0
475 49 0
483 5 0
460 18 0
489 19 0
501 1 0
23 3 0
22 16 0
2 26 0
31 19 0
27 14 0
29 9 0
36 3 0
37 12 0
64 10 0
68 24 0
86 25 0
53 18 0
41 17 0
61 32 0
62 40 0
84 42 0
79 43 0
75 45 0
64 49 0
58 49 0
39 50 0
51 39 0
51 33 0
32 47 0
9 47 0
30 49 0
17 56 0
11 60 0
14 76 0
26 64 0
25 111 0
23 96 0
0 81 0
7 121 0
11 125 0
7 142 0
21 131 0
28 148 0
12 122 0
15 115 0
57 131 0
64 139 0
41 142 0
79 123 0
81 146 0
70 116 0
70 112 0
82 90 0
73 108 0
33 98 0
44 72 0
32 74 0
77 67 0
83 84 0
89 90 0
104 73 0
109 77 0
112 93 0
109 93 0
107 92 0
94 106 0
87 111 0
92 139 0
101 146 0
107 131 0
118 121 0
119 118 0
131 93 0
126 107 0
133 121 0
147 107 0
142 147 0
134 100 0
144 96 0
150 87 0
123 89 0
122 81 0
121 64 0
127 70 0
140 69 0
150 67 0
149 41 0
148 34 0
149 29 0
137 39 0
146 47 0
138 56 0
145 62 0
126 59 0
108 61 0
92 54 0
108 29 0
115 52 0
116 35 0
128 34 0
98 27 0
90 22 0
87 22 0
88 16 0
100 7 0
104 3 0
107 10 0
134 8 0
134 18 0
113 23 0
141 16 0
135 21 0
137 8 0
135 6 0
165 21 0
165 17 0
176 22 0
181 23 0
168 31 0
160 33 0
162 44 0
153 60 0
155 64 0
179 58 0
163 55 0
186 47 0
178 37 0
194 61 0
187 62 0
187 67 0
196 56 0
209 65 0
195 51 0
201 47 0
202 43 0
199 39 0
190 46 0
198 21 0
197 12 0
205 26 0
208 20 0
211 1 0
210 18 0
213 31 0
215 30 0
216 23 0
215 20 0
233 5 0
244 5 0
251 3 0
273 15 0
271 17 0
234 20 0
217 17 0
242 34 0
243 43 0
244 49 0
258 58 0
265 66 0
238 50 0
237 60 0
228 65 0
226 61 0
236 40 0
210 55 0
219 35 0
210 62 0
223 68 0
211 71 0
208 75 0
210 107 0
221 98 0
215 94 0
215 83 0
256 82 0
259 83 0
271 69 0
265 125 0
274 105 0
244 100 0
239 96 0
258 133 0
268 128 0
273 128 0
262 141 0
259 138 0
257 144 0
252 140 0
227 143 0
229 135 0
235 131 0
221 128 0
216 131 0
209 132 0
221 149 0
203 131 0
199 108 0
194 125 0
195 95 0
190 105 0
200 99 0
203 105 0
205 87 0
202 72 0
199 71 0
192 88 0
189 80 0
187 89 0
196 92 0
170 91 0
177 83 0
180 82 0
162 70 0
150 70 0
167 86 0
152 89 0
166 92 0
172 100 0
175 92 0
185 132 0
184 119 0
180 122 0
179 136 0
138 174 0
155 157 0
170 166 0
160 189 0
137 188 0
134 188 0
143 190 0
136 203 0
137 206 0
160 208 0
152 209 0
156 204 0
150 198 0
182 196 0
179 200 0
184 206 0
187 221 0
194 206 0
196 195 0
191 191 0
194 180 0
187 175 0
173 183 0
185 160 0
171 169 0
195 158 0
198 172 0
209 155 0
212 184 0
199 187 0
219 183 0
236 165 0
218 159 0
246 166 0
248 154 0
262 169 0
260 171 0
242 181 0
242 173 0
239 172 0
248 200 0
259 201 0
273 200 0
272 203 0
271 215 0
268 218 0
265 212 0
231 220 0
230 201 0
234 190 0
218 202 0
219 210 0
204 222 0
217 225 0
198 237 0
199 248 0
191 257 0
201 242 0
200 235 0
207 232 0
216 233 0
255 243 0
270 236 0
234 262 0
242 260 0
214 244 0
211 256 0
235 281 0
236 269 0
238 285 0
262 301 0
270 290 0
253 300 0
235 287 0
230 303 0
207 292 0
217 270 0
194 274 0
199 264 0
198 274 0
186 295 0
181 303 0
155 284 0
151 286 0
154 277 0
158 282 0
175 266 0
176 270 0
177 248 0
179 237 0
168 234 0
151 229 0
161 231 0
158 253 0
157 258 0
150 270 0
148 249 0
150 241 0
131 254 0
138 235 0
146 255 0
137 263 0
128 272 0
138 270 0
140 274 0
138 299 0
149 304 0
129 283 0
126 292 0
125 283 0
124 273 0
115 273 0
103 273 0
100 276 0
113 305 0
93 285 0
88 290 0
88 303 0
85 271 0
87 284 0
90 268 0
94 277 0
100 258 0
96 243 0
71 258 0
83 235 0
84 227 0
92 231 0
99 232 0
104 226 0
108 260 0
103 266 0
125 266 0
111 264 0
122 227 0
113 220 0
121 207 0
108 210 0
101 208 0
110 180 0
98 175 0
112 178 0
114 207 0
125 160 0
120 160 0
122 158 0
107 156 0
98 151 0
111 163 0
119 169 0
81 179 0
93 179 0
96 178 0
78 160 0
81 164 0
76 178 0
73 187 0
67 188 0
77 201 0
85 204 0
92 206 0
92 214 0
90 220 0
76 217 0
53 244 0
50 228 0
47 221 0
52 215 0
56 208 0
60 210 0
62 188 0
60 182 0
58 173 0
48 186 0
48 183 0
38 188 0
53 193 0
35 198 0
24 186 0
29 155 0
5 175 0
11 165 0
12 177 0
16 189 0
3 215 0
5 208 0
7 234 0
34 237 0
35 245 0
20 237 0
10 234 0
11 250 0
4 263 0
3 266 0
18 274 0
21 261 0
20 258 0
26 249 0
47 252 0
59 255 0
67 254 0
65 274 0
66 271 0
65 261 0
51 276 0
45 289 0
53 277 0
65 283 0
63 298 0
66 304 0
59 299 0
31 292 0
19 301 0
0 282 0
17 277 0
0 276 0
0 289 0
0 296 0
0 300 0
3 325 0
35 327 0
40 335 0
39 339 0
32 350 0
20 335 0
8 357 0
0 379 0
36 380 0
38 365 0
39 399 0
37 359 0
39 357 0
54 341 0
52 386 0
48 386 0
56 399 0
64 395 0
72 379 0
64 350 0
74 319 0
69 315 0
53 322 0
50 311 0
59 313 0
68 306 0
68 312 0
81 313 0
95 318 0
91 345 0
[...]
CELL_DATA 73947
COLOR_SCALARS ColorSpace 1
0.917647
0.917647
0.917647
0.269281
0.917647
0.635294
0.224837
0.205229
0.270588
0.433987
0.620915
0.917647
0.781699
0.917647
0.918954
0.0627451
0.273203
0.163399
0.240523
0.264052
0.917647
0.917647
0.261438
0.917647
0.917647
0.917647
0.917647
0.917647
0.917647
0.917647
0.901961
0.780392
0.267974
0.917647
0.764706
0.270588
0.917647
0.243137
0.780392
0.780392
0.620915
0.88366
0.133333
0.869281
0.784314
0.917647
0.284967
0.917647
0.917647
0.173856
0.917647
0.918954
0.703268
0.139869
0.160784
0.27451
0.917647
0.703268
0.230065
0.205229
0.759477
0.780392
0.917647
0.261438
0.121569
0.633987
0.0915033
0.917647
0.917647
0.262745
0.270588
0.917647
0.247059
0.27451
0.262745
0.260131
0.258824
0.917647
0.917647
0.917647
0.636601
0.277124
0.096732
0.917647
0.277124
0.780392
0.0732026
0.917647
0.755556
0.23268
0.261438
0.911111
0.105882
0.780392
0.27451
0.780392
0.780392
0.722876
0.777778
0.780392
0.780392
0.780392
0.780392
0.299346
0.780392
0.172549
0.915033
0.873203
0.27451
0.911111
0.275817
0.233987
0.917647
0.917647
0.917647
0.917647
0.917647
0.917647
0.356863
0.783007
0.917647
0.917647
0.917647
0.917647
0.917647
0.262745
0.917647
0.265359
0.917647
0.186928
0.264052
0.918954
0.917647
0.917647
0.917647
0.917647
0.917647
0.917647
0.917647
0.917647
0.917647
0.917647
0.917647
0.917647
0.917647
0.917647
0.918954
0.917647
0.917647
0.622222
0.917647
0.0836601
0.917647
0.917647
0.704575
0.69281
0.117647
0.247059
0.622222
0.780392
0.917647
0.244444
0.917647
0.185621
0.917647
0.266667
0.240523
0.901961
0.150327
0.202614
0.658824
0.364706
0.166013
0.261438
0.886275
0.0849673
0.220915
0.747712
0.721569
0.55817
0.745098
0.258824
0.175163
0.245752
0.0627451
0.917647
0.917647
0.917647
0.871895
0.918954
0.216993
0.917647
0.264052
0.917647
0.226144
0.228758
0.917647
0.261438
0.917647
0.27451
0.465359
0.917647
0.218301
0.237908
0.917647
0.147712
0.917647
0.917647
0.189542
0.722876
0.690196
0.069281
0.63268
0.155556
0.210458
0.894118
0.636601
0.252288
0.917647
0.260131
0.917647
0.257516
0.917647
0.917647
0.917647
0.917647
0.169935
0.917647
0.917647
0.917647
0.253595
0.277124
0.261438
0.24183
0.712418
0.262745
0.138562
0.780392
0.266667
0.196078
0.780392
0.780392
0.690196
0.258824
0.777778
0.224837
0.265359
0.227451
0.186928
0.620915
0.623529
0.879739
0.631373
0.237908
0.917647
0.91634
0.912418
0.901961
0.91634
0.156863
0.90719
0.0941176
0.917647
0.256209
0.069281
0.917647
0.917647
0.917647
0.305882
0.265359
0.359477
0.917647
0.917647
0.908497
0.917647
0.270588
0.262745
0.347712
0.917647
0.917647
0.917647
0.265359
0.257516
0.261438
0.917647
0.249673
0.917647
0.917647
0.917647
0.917647
0.917647
0.917647
0.917647
0.918954
0.0941176
0.917647
0.258824
0.917647
0.917647
0.915033
0.917647
0.917647
0.917647
0.917647
0.90719
0.917647
0.266667
0.215686
0.260131
0.23268
0.286275
0.368627
0.258824
0.917647
0.917647
0.205229
0.917647
0.917647
0.0849673
0.253595
0.91634
0.626144
0.257516
0.917647
0.261438
0.138562
0.917647
0.89281
0.917647
0.0666667
0.908497
0.401307
0.0640523
0.917647
0.917647
0.917647
0.917647
0.252288
0.917647
0.917647
0.0627451
0.918954
0.0627451
0.0627451
0.913725
0.0627451
0.0627451
0.917647
0.0627451
0.386928
0.0627451
0.352941
0.270588
0.917647
0.696732
0.917647
0.631373
0.915033
0.667974
0.917647
0.180392
0.917647
0.171242
0.227451
0.224837
0.262745
0.224837
0.189542
0.917647
0.135948
0.231373
0.258824
0.258824
0.275817
0.270588
0.265359
0.258824
0.269281
0.261438
0.917647
0.262745
0.89281
0.917647
0.917647
0.639216
0.917647
0.780392
0.262745
0.198693
0.198693
0.261438
0.779085
0.780392
0.691503
0.352941
0.784314
0.738562
0.784314
0.780392
0.780392
0.780392
0.780392
0.780392
0.264052
0.257516
0.780392
0.780392
0.780392
0.780392
0.780392
0.780392
0.780392
0.780392
0.780392
0.780392
0.11634
0.51634
0.11634
0.194771
0.917647
0.644444
0.261438
0.917647
0.269281
0.918954
0.203922
0.917647
0.233987
0.917647
0.20915
0.258824
0.175163
0.917647
0.91634
0.917647
0.264052
0.249673
0.917647
0.917647
0.352941
0.171242
0.271895
0.917647
0.917647
0.917647
0.917647
0.917647
0.91634
0.91634
0.261438
0.917647
0.226144
0.917647
0.220915
0.236601
0.917647
0.917647
0.231373
0.917647
0.918954
0.267974
0.917647
0.917647
0.917647
0.917647
0.917647
0.917647
0.917647
0.917647
0.917647
0.917647
0.917647
0.917647
0.695425
0.917647
0.917647
0.917647
0.917647
0.917647
0.260131
0.91634
0.917647
0.917647
0.917647
0.917647
0.917647
0.917647
0.917647
0.917647
0.917647
0.917647
0.917647
0.917647
0.917647
0.917647
0.256209
0.917647
0.917647
0.917647
0.917647
0.654902
0.0928105
0.405229
0.223529
0.385621
0.267974
0.260131
0.23268
0.256209
0.262745
0.160784
0.614379
0.91634
0.216993
0.401307
0.261438
0.258824
0.262745
0.257516
0.258824
0.918954
0.222222
0.258824
0.920261
0.175163
0.269281
0.258824
0.146405
0.917647
0.273203
0.256209
0.236601
0.265359
0.168627
0.60915
0.905882
0.894118
0.254902
0.900654
0.356863
0.271895
0.917647
0.917647
0.917647
0.917647
0.917647
0.917647
0.917647
0.917647
0.917647
0.917647
0.917647
0.917647
0.917647
0.917647
0.917647
0.917647
0.917647
0.917647
0.917647
0.917647
0.917647
0.917647
0.917647
0.917647
0.917647
0.917647
0.917647
0.917647
0.917647
0.917647
0.917647
0.917647
0.917647
0.917647
0.917647
0.917647
0.917647
0.917647
0.917647
0.917647
0.917647
0.917647
0.917647
0.917647
0.266667
0.27451
0.163399
0.917647
0.260131
0.917647
0.227451
0.186928
0.453595
0.63268
0.915033
0.780392
0.247059
0.917647
0.917647
0.917647
0.917647
0.917647
0.917647
0.917647
0.917647
0.900654
0.917647
0.917647
0.917647
0.917647
0.917647
0.917647
0.227451
0.917647
0.254902
0.913725
0.917647
0.219608
0.917647
0.0810458
0.172549
0.917647
0.245752
0.917647
0.91634
0.411765
0.917647
0.253595
0.917647
0.904575
0.649673
0.867974
0.137255
0.258824
0.258824
0.0705882
0.215686
0.780392
0.0745098
0.779085
0.265359
0.0849673
0.583007
0.866667
0.781699
0.866667
0.184314
0.551634
0.145098
0.771242
0.139869
0.703268
0.52549
0.151634
0.518954
0.216993
0.0928105
0.780392
0.780392
0.780392
0.244444
0.780392
0.264052
0.258824
0.269281
0.258824
0.258824
0.258824
0.261438
0.253595
0.779085
0.266667
0.694118
0.682353
0.219608
0.688889
0.247059
0.68366
0.28366
0.643137
0.270588
0.244444
0.426144
0.373856
0.252288
0.675817
0.260131
0.183007
0.277124
0.269281
0.257516
0.686275
0.768627
0.109804
0.142484
0.145098
0.784314
0.535948
0.24183
0.169935
0.267974
0.89281
0.266667
0.108497
0.117647
0.386928
0.154248
0.780392
0.282353
0.780392
0.597386
0.837908
0.328105
0.175163
0.754248
0.816993
0.277124
0.214379
0.866667
0.491503
0.720261
0.866667
0.853595
0.145098
0.865359
0.857516
0.369935
0.779085
0.364706
0.0627451
0.611765
0.499346
0.0627451
0.257516
0.0679739
0.211765
0.207843
0.8
0.104575
0.594771
0.0627451
0.780392
0.669281
0.662745
0.785621
0.329412
0.779085
0.786928
0.793464
0.652288
0.776471
0.70719
0.779085
0.780392
0.779085
0.0941176
0.79085
0.186928
0.776471
0.0941176
0.866667
0.341176
0.0627451
0.0797386
0.0823529
0.0666667
0.273203
0.35817
0.269281
0.91634
0.25098
0.169935
0.188235
0.917647
0.909804
0.917647
0.920261
0.917647
0.613072
0.254902
0.269281
0.262745
0.271895
0.223529
0.228758
0.39085
0.917647
0.27451
0.181699
0.192157
0.915033
0.258824
0.917647
0.27451
0.273203
0.214379
0.267974
0.266667
0.228758
0.265359
0.0666667
0.0679739
0.279739
0.0627451
0.0627451
0.253595
0.0666667
0.0836601
0.0627451
0.0666667
0.0627451
0.265359
0.168627
0.228758
0.069281
0.264052
0.917647
0.649673
0.205229
0.192157
0.261438
0.905882
0.270588
0.252288
0.915033
0.875817
0.917647
0.917647
0.920261
0.917647
0.917647
0.917647
0.917647
0.917647
0.917647
0.917647
0.23268
0.920261
0.235294
0.917647
0.917647
0.917647
0.917647
0.917647
0.917647
0.917647
0.917647
0.917647
0.917647
0.917647
0.917647
0.917647
0.917647
0.917647
0.633987
0.879739
0.917647
0.227451
0.163399
0.917647
0.917647
0.917647
0.917647
0.917647
0.214379
0.201307
0.917647
0.917647
0.917647
0.219608
0.233987
0.394771
0.197386
0.168627
0.918954
0.253595
0.91634
0.708497
0.252288
0.216993
0.661438
0.0745098
0.135948
0.401307
0.648366
0.0627451
0.701961
0.678431
0.690196
0.681046
0.226144
0.206536
0.87451
0.68366
0.181699
0.633987
0.227451
0.647059
0.848366
0.679739
0.665359
0.256209
0.14902
0.739869
0.700654
0.19085
0.709804
0.227451
0.622222
0.917647
0.917647
0.917647
0.917647
0.917647
0.917647
0.917647
0.20915
0.23268
0.91634
0.219608
0.91634
0.184314
0.920261
0.917647
0.918954
0.261438
0.219608
0.917647
0.917647
0.917647
0.917647
0.917647
0.917647
0.917647
0.0836601
0.917647
0.917647
0.160784
0.236601
0.226144
0.258824
0.256209
0.917647
0.252288
0.192157
0.913725
0.917647
0.12549
0.917647
0.0823529
0.203922
0.264052
0.917647
0.205229
0.69281
0.243137
0.256209
0.917647
0.210458
0.254902
0.181699
0.879739
0.866667
0.720261
0.917647
0.345098
0.601307
0.262745
0.362092
0.236601
0.333333
0.792157
0.266667
0.588235
0.247059
0.718954
0.265359
0.773856
0.134641
0.132026
0.118954
0.780392
0.688889
0.261438
0.142484
0.698039
0.780392
0.844444
0.240523
0.666667
0.780392
0.311111
0.296732
0.44183
0.717647
0.273203
0.247059
0.780392
0.260131
0.780392
0.30719
0.772549
0.780392
0.780392
0.780392
0.780392
0.678431
0.780392
0.780392
0.780392
0.763399
0.772549
0.256209
0.780392
0.254902
0.138562
0.226144
0.703268
0.484967
0.667974
0.121569
0.428758
0.917647
0.72549
0.917647
0.783007
0.917647
0.258824
0.231373
0.269281
0.0888889
0.917647
0.269281
0.0915033
0.917647
0.16732
0.466667
0.243137
0.759477
0.639216
0.780392
0.708497
0.712418
0.163399
0.253595
0.597386
0.244444
0.231373
0.252288
0.243137
0.222222
0.262745
0.270588
0.219608
0.0627451
0.249673
0.248366
0.917647
0.230065
0.917647
0.917647
0.0627451
0.100654
0.0718954
0.0627451
0.917647
0.917647
0.624837
0.886275
0.266667
0.223529
0.917647
0.63268
0.202614
0.169935
0.0745098
0.219608
0.0666667
0.59085
0.917647
0.917647
0.0627451
0.633987
0.0627451
0.291503
0.262745
0.654902
0.917647
0.909804
0.256209
0.917647
0.89281
0.917647
0.0862745
0.91634
0.917647
0.917647
0.917647
0.917647
0.917647
0.917647
0.917647
0.917647
0.175163
0.917647
0.918954
0.917647
0.917647
0.917647
0.917647
0.917647
0.917647
0.917647
0.917647
0.917647
0.917647
0.917647
0.917647
0.917647
0.27451
0.917647
0.264052
0.917647
0.917647
0.917647
0.917647
0.917647
0.878431
0.917647
0.917647
0.917647
0.909804
0.231373
0.636601
0.258824
0.260131
0.14902
0.443137
0.128105
0.270588
0.257516
0.254902
0.143791
0.122876
0.624837
0.213072
0.223529
0.151634
0.917647
0.0627451
0.12549
0.0627451
0.633987
0.912418
0.911111
0.236601
0.236601
0.227451
0.258824
0.27451
0.258824
0.854902
0.917647
0.917647
0.258824
0.258824
0.269281
0.258824
0.271895
0.909804
0.27451
0.261438
0.260131
0.249673
0.262745
0.254902
0.258824
0.24183
0.265359
0.226144
0.904575
0.91634
0.265359
0.91634
0.917647
0.888889
0.917647
0.917647
0.917647
0.917647
0.917647
0.917647
0.917647
0.917647
0.917647
0.917647
0.917647
0.917647
0.917647
0.917647
0.917647
0.917647
0.917647
0.917647
0.917647
0.917647
0.917647
0.917647
0.917647
0.917647
0.917647
0.917647
0.917647
0.917647
0.917647
0.917647
0.917647
0.917647
0.219608
0.917647
0.917647
0.917647
0.91634
0.917647
0.917647
0.89281
0.917647
0.913725
0.918954
0.917647
0.917647
0.917647
0.917647
0.917647
0.917647
0.917647
0.267974
0.920261
0.917647
0.23268
0.895425
0.694118
0.918954
0.269281
0.917647
0.258824
0.266667
0.273203
0.172549
0.248366
0.273203
0.23268
0.260131
0.918954
0.917647
0.917647
0.267974
0.918954
0.898039
0.890196
0.273203
0.908497
0.265359
0.273203
0.169935
0.248366
0.913725
0.260131
0.27451
0.258824
0.270588
0.261438
0.261438
0.273203
0.257516
0.258824
0.25098
0.25098
0.20915
0.267974
0.252288
0.254902
0.210458
0.151634
0.126797
0.222222
0.921569
0.635294
0.286275
0.265359
0.267974
0.867974
0.270588
0.0627451
0.173856
0.909804
0.0627451
0.0784314
0.917647
0.364706
0.620915
0.257516
0.0679739
0.273203
0.207843
0.264052
0.918954
0.249673
0.262745
0.917647
0.262745
0.258824
0.890196
0.921569
0.258824
0.271895
0.266667
0.88366
0.240523
0.350327
0.207843
0.917647
0.267974
0.069281
0.917647
0.894118
0.903268
0.0823529
0.619608
0.0640523
0.112418
0.63268
0.917647
0.917647
0.915033
0.0888889
0.888889
0.633987
0.373856
0.917647
0.901961
0.0627451
0.918954
0.917647
0.075817
0.917647
0.653595
0.917647
0.917647
0.918954
0.917647
0.912418
0.917647
0.917647
0.0627451
0.913725
0.0823529
0.0627451
0.101961
0.0640523
0.0627451
0.63268
0.257516
0.264052
0.253595
0.381699
0.87451
0.0627451
0.649673
0.254902
0.913725
0.146405
0.917647
0.0627451
0.615686
0.0928105
0.0640523
0.207843
0.911111
0.109804
0.0627451
0.908497
0.168627
0.0627451
0.0627451
0.60915
0.075817
0.0718954
0.0627451
0.0627451
0.0627451
0.614379
0.917647
0.0627451
0.347712
0.631373
0.917647
0.917647
0.918954
0.603922
0.0627451
0.917647
0.900654
0.917647
0.67451
0.917647
0.0732026
0.0627451
0.359477
0.0627451
0.63268
0.0627451
0.917647
0.917647
0.917647
0.917647
0.917647
0.917647
0.917647
0.917647
0.917647
0.351634
0.254902
0.917647
0.63268
0.917647
0.917647
0.917647
0.0627451
0.0627451
0.347712
0.0627451
0.0627451
0.623529
0.0627451
0.0627451
0.635294
0.0627451
0.0627451
0.0627451
0.0627451
0.0627451
0.0627451
0.342484
0.0627451
0.0627451
0.0627451
0.359477
0.345098
0.0627451
0.350327
0.0745098
0.0627451
0.0627451
0.0627451
0.0705882
0.0627451
0.0627451
0.917647
0.918954
0.917647
0.0627451
0.917647
0.0627451
0.917647
0.0627451
0.0627451
0.913725
0.0627451
0.0627451
0.0627451
0.901961
0.240523
0.917647
0.2
0.917647
0.329412
0.918954
0.917647
0.917647
0.917647
0.150327
0.699346
0.188235
0.917647
0.541176
0.211765
0.696732
0.179085
0.498039
0.695425
0.65098
0.699346
0.295425
0.705882
0.701961
0.746405
0.461438
0.700654
0.223529
0.177778
0.201307
0.635294
0.461438
0.662745
0.227451
0.372549
0.688889
0.780392
0.173856
0.235294
0.917647
0.2
0.0888889
0.258824
0.917647
0.886275
0.878431
0.223529
0.917647
0.0666667
0.917647
0.900654
0.0627451
0.637908
0.0627451
0.0627451
0.419608
0.0627451
0.0627451
0.352941
0.0653595
0.918954
0.0666667
0.597386
0.34902
0.918954
0.918954
0.24183
0.169935
0.0627451
0.258824
0.918954
0.265359
0.247059
0.271895
0.631373
0.908497
0.254902
0.0915033
0.243137
0.124183
0.162092
0.352941
0.207843
0.91634
0.918954
0.210458
0.215686
0.210458
0.173856
0.213072
0.252288
0.224837
0.24183
0.270588
0.260131
0.257516
0.24183
0.260131
0.711111
0.256209
0.780392
0.257516
0.27451
0.424837
0.266667
0.355556
0.915033
0.194771
0.917647
0.917647
0.918954
0.266667
0.179085
0.466667
0.917647
0.904575
0.239216
0.181699
0.918954
0.260131
0.717647
0.256209
0.780392
0.345098
0.788235
0.773856
0.254902
0.755556
0.202614
0.779085
0.730719
0.755556
0.735948
0.769935
0.513725
0.347712
0.509804
0.34902
0.267974
0.265359
0.258824
0.258824
0.258824
0.700654
0.70719
0.729412
0.47451
0.699346
0.712418
0.780392
0.780392
0.72549
0.780392
0.780392
0.780392
0.743791
0.718954
0.686275
0.717647
0.754248
0.781699
0.730719
0.717647
0.728105
0.754248
0.737255
0.783007
0.780392
0.780392
0.715033
0.762092
0.768627
0.780392
0.780392
0.780392
0.780392
0.780392
0.780392
0.780392
0.780392
0.780392
0.780392
0.780392
0.780392
0.780392
0.780392
0.780392
0.780392
0.780392
0.780392
0.780392
0.780392
0.735948
0.780392
0.780392
0.780392
0.780392
0.780392
0.780392
0.780392
0.780392
0.313725
0.780392
0.780392
0.780392
0.780392
0.258824
0.780392
0.780392
0.780392
0.780392
0.780392
0.780392
0.780392
0.780392
0.780392
0.780392
0.780392
0.780392
0.780392
0.780392
0.780392
0.780392
0.780392
0.780392
0.759477
0.780392
0.780392
0.780392
0.780392
0.780392
0.652288
0.780392
0.780392
0.779085
0.780392
0.780392
0.752941
0.780392
0.775163
0.780392
0.588235
0.271895
0.214379
0.780392
0.780392
0.780392
0.305882
0.27451
0.780392
0.781699
0.780392
0.780392
0.205229
0.258824
0.257516
0.780392
0.52549
0.261438
0.243137
0.213072
0.256209
0.235294
0.258824
0.277124
0.915033
0.780392
0.257516
0.254902
0.267974
0.766013
0.254902
0.526797
0.364706
0.260131
0.908497
0.917647
0.90719
0.261438
0.245752
0.267974
0.262745
0.918954
0.206536
0.917647
0.917647
0.257516
0.917647
0.270588
0.918954
0.917647
0.917647
0.91634
0.915033
0.917647
0.91634
0.917647
0.917647
0.917647
0.913725
0.917647
0.63268
0.917647
0.894118
0.129412
0.211765
0.249673
0.917647
0.90719
0.917647
0.917647
0.917647
0.917647
0.917647
0.917647
0.917647
0.917647
0.917647
0.88366
0.917647
0.917647
0.917647
0.917647
0.917647
0.917647
0.917647
0.917647
0.917647
0.917647
0.917647
0.226144
0.917647
0.917647
0.917647
0.888889
0.917647
0.917647
0.917647
0.288889
0.231373
0.679739
0.230065
0.918954
0.0941176
0.894118
0.920261
0.264052
0.270588
0.917647
0.27451
0.218301
0.240523
0.917647
0.917647
0.917647
0.917647
0.917647
0.917647
0.917647
0.917647
0.917647
0.917647
0.913725
0.237908
0.27451
0.917647
0.257516
0.265359
0.273203
0.267974
0.267974
0.207843
0.917647
0.270588
0.256209
0.271895
0.271895
0.245752
0.269281
0.264052
0.27451
0.261438
0.264052
0.207843
0.258824
0.215686
0.652288
0.917647
0.126797
0.904575
0.197386
0.258824
0.258824
0.888889
0.917647
0.151634
0.277124
0.207843
0.258824
0.917647
0.917647
0.917647
0.917647
0.917647
0.270588
0.917647
0.917647
0.917647
0.917647
0.917647
0.266667
0.20915
0.917647
0.918954
0.258824
0.917647
0.185621
0.643137
0.278431
0.660131
0.917647
0.917647
0.917647
0.917647
0.917647
0.917647
0.917647
0.917647
0.917647
0.917647
0.917647
0.917647
0.917647
0.917647
0.917647
0.917647
0.917647
0.917647
0.917647
0.917647
0.917647
0.917647
0.917647
0.917647
0.917647
0.917647
0.917647
0.917647
0.917647
0.917647
0.917647
0.917647
0.917647
0.917647
0.917647
0.917647
0.917647
0.917647
0.917647
0.917647
0.917647
0.917647
0.917647
0.917647
0.917647
0.917647
0.917647
0.917647
0.917647
0.917647
0.917647
0.917647
0.917647
0.917647
0.917647
0.917647
0.917647
0.917647
0.917647
0.917647
0.917647
0.917647
0.917647
0.917647
0.917647
0.917647
0.917647
0.917647
0.917647
0.917647
0.917647
0.917647
0.90719
0.917647
0.0993464
0.419608
0.15817
0.192157
0.254902
0.91634
0.917647
0.917647
0.917647
0.912418
0.917647
0.917647
0.917647
0.903268
0.917647
0.917647
0.917647
0.917647
0.917647
0.917647
0.917647
0.917647
0.917647
0.917647
0.917647
0.917647
0.917647
0.917647
0.917647
0.917647
0.917647
0.917647
0.917647
0.917647
0.917647
0.917647
0.917647
0.917647
0.917647
0.917647
0.917647
0.917647
0.917647
0.917647
0.917647
0.917647
0.917647
0.920261
0.917647
0.671895
0.917647
0.917647
0.917647
0.917647
0.917647
0.917647
0.917647
0.917647
0.917647
0.917647
0.917647
0.253595
0.917647
0.402614
0.173856
0.196078
0.908497
0.917647
0.917647
0.917647
0.917647
0.917647
0.917647
0.917647
0.917647
0.917647
0.917647
0.917647
0.917647
0.917647
0.917647
0.917647
0.917647
0.917647
0.917647
0.917647
0.867974
0.917647
0.260131
0.262745
0.172549
0.262745
0.640523
0.27451
0.273203
0.201307
0.25098
0.904575
0.179085
0.231373
0.258824
0.236601
0.267974
0.264052
0.132026
0.265359
0.619608
0.261438
0.271895
0.917647
0.152941
0.435294
0.275817
0.254902
0.258824
0.264052
0.918954
0.265359
0.256209
0.267974
0.239216
0.269281
0.34902
0.260131
0.257516
0.264052
0.25098
0.245752
0.257516
0.379085
0.184314
0.252288
0.397386
0.630065
0.249673
0.248366
0.248366
0.267974
0.266667
0.258824
0.265359
0.254902
0.264052
0.257516
0.267974
0.917647
0.258824
0.15817
0.233987
0.261438
0.917647
0.270588
0.261438
0.264052
0.258824
0.25098
0.917647
0.258824
0.239216
0.917647
0.908497
0.635294
0.252288
0.917647
0.917647
0.913725
0.273203
0.606536
0.264052
0.223529
0.258824
0.265359
0.258824
0.247059
0.254902
0.273203
0.394771
0.257516
0.260131
0.639216
0.631373
0.11634
0.917647
0.244444
0.267974
0.254902
0.266667
0.258824
0.271895
0.278431
0.917647
0.277124
0.265359
0.917647
0.271895
0.917647
0.265359
0.287582
0.156863
0.464052
0.917647
0.260131
0.262745
0.266667
0.256209
0.201307
0.240523
0.173856
0.917647
0.900654
0.894118
0.917647
0.917647
0.633987
0.917647
0.894118
0.909804
0.25098
0.354248
0.917647
0.917647
0.917647
0.917647
0.917647
0.917647
0.917647
0.917647
0.917647
0.917647
0.917647
0.917647
0.917647
0.917647
0.917647
0.917647
0.917647
0.917647
0.891503
0.917647
0.920261
0.917647
0.917647
0.917647
0.917647
0.917647
0.917647
0.917647
0.917647
0.917647
0.917647
0.917647