# vtk DataFile Version 1.0
Unstructured Grid Example
ASCII

DATASET UNSTRUCTURED_GRID
POINTS 6783 float
249 73 0
253 372 0
43 453 0
387 575 0
300 414 0
257 412 0
2 5 0
72 20 0
301 66 0
166 334 0
76 268 0
38 439 0
157 525 0
265 373 0
310 354 0
320 354 0
345 398 0
364 615 0
375 567 0
372 473 0
481 442 0
509 339 0
357 334 0
355 222 0
403 30 0
424 322 0
13 36 0
5 48 0
89 6 0
43 9 0
114 13 0
114 39 0
260 44 0
128 47 0
127 51 0
176 56 0
203 63 0
193 252 0
157 88 0
152 96 0
116 157 0
151 71 0
112 86 0
105 146 0
116 148 0
96 375 0
112 358 0
235 384 0
211 406 0
145 387 0
49 441 0
41 481 0
247 587 0
226 525 0
219 486 0
259 598 0
256 632 0
264 624 0
283 578 0
277 507 0
277 501 0
251 502 0
255 326 0
260 440 0
282 360 0
285 417 0
341 419 0
331 491 0
322 433 0
291 421 0
295 505 0
288 655 0
356 655 0
300 651 0
343 505 0
391 609 0
368 620 0
423 546 0
436 527 0
436 493 0
396 455 0
365 486 0
361 408 0
449 452 0
468 424 0
521 345 0
511 281 0
475 308 0
428 335 0
343 340 0
339 362 0
310 362 0
286 330 0
306 270 0
308 316 0
386 89 0
369 95 0
285 30 0
303 59 0
363 59 0
406 19 0
407 89 0
522 122 0
421 4 0
419 3 0
38 3 0
54 1 0
0 3 0
93 4 0
10 4 0
54 14 0
79 81 0
77 25 0
68 21 0
94 29 0
106 32 0
143 74 0
115 43 0
148 35 0
137 19 0
114 25 0
113 6 0
118 1 0
121 13 0
155 47 0
165 55 0
173 53 0
174 50 0
198 39 0
212 24 0
248 8 0
277 40 0
247 54 0
206 61 0
259 62 0
268 67 0
265 75 0
261 70 0
240 88 0
195 84 0
194 69 0
181 61 0
193 62 0
193 72 0
172 96 0
167 137 0
193 133 0
183 115 0
201 99 0
218 102 0
269 92 0
256 108 0
228 135 0
215 110 0
263 153 0
281 320 0
276 353 0
263 361 0
260 356 0
259 359 0
240 347 0
184 305 0
169 325 0
238 343 0
134 333 0
108 325 0
130 290 0
137 243 0
149 322 0
131 201 0
157 96 0
92 96 0
124 99 0
121 152 0
84 209 0
80 125 0
0 137 0
0 207 0
69 218 0
0 249 0
76 237 0
64 269 0
63 282 0
58 276 0
118 364 0
111 385 0
119 390 0
168 378 0
129 368 0
181 372 0
217 364 0
244 393 0
233 390 0
201 384 0
208 397 0
216 417 0
237 429 0
172 444 0
123 430 0
42 442 0
96 439 0
24 422 0
28 431 0
29 444 0
40 472 0
87 452 0
134 522 0
125 521 0
104 524 0
165 561 0
14 655 0
194 549 0
181 544 0
180 526 0
198 530 0
205 542 0
230 616 0
239 577 0
212 572 0
228 497 0
216 504 0
212 466 0
231 455 0
233 488 0
247 442 0
265 430 0
266 484 0
253 486 0
248 470 0
244 499 0
245 614 0
266 642 0
248 629 0
265 620 0
270 601 0
268 638 0
281 555 0
274 532 0
278 532 0
276 529 0
267 513 0
272 459 0
278 457 0
281 434 0
280 386 0
274 382 0
270 385 0
269 419 0
270 424 0
267 421 0
245 419 0
250 407 0
259 397 0
264 415 0
266 375 0
263 375 0
247 371 0
264 369 0
267 373 0
270 364 0
268 366 0
272 374 0
271 371 0
275 364 0
294 380 0
291 412 0
288 383 0
296 414 0
304 384 0
358 393 0
357 398 0
356 404 0
303 402 0
336 436 0
353 417 0
334 467 0
332 445 0
332 474 0
319 438 0
319 415 0
318 419 0
302 425 0
295 455 0
303 483 0
312 480 0
307 507 0
295 529 0
286 548 0
283 629 0
283 650 0
306 632 0
300 626 0
301 605 0
319 638 0
334 655 0
342 641 0
345 624 0
337 617 0
331 602 0
329 529 0
317 488 0
351 479 0
352 475 0
375 473 0
391 470 0
397 475 0
382 474 0
374 475 0
368 490 0
370 607 0
386 635 0
374 614 0
385 604 0
406 566 0
399 655 0
522 647 0
518 643 0
454 579 0
522 556 0
404 548 0
407 533 0
425 496 0
460 516 0
442 463 0
446 435 0
430 460 0
419 461 0
400 461 0
389 466 0
367 455 0
363 426 0
373 455 0
388 426 0
362 413 0
362 421 0
367 397 0
369 412 0
369 380 0
374 390 0
376 417 0
385 425 0
476 416 0
512 404 0
522 379 0
484 362 0
518 353 0
520 342 0
522 360 0
516 298 0
522 270 0
507 316 0
486 340 0
515 341 0
477 320 0
437 306 0
424 260 0
431 300 0
428 305 0
436 359 0
469 323 0
446 364 0
434 376 0
431 366 0
333 356 0
336 343 0
325 359 0
316 363 0
320 365 0
286 376 0
283 374 0
304 369 0
306 367 0
311 364 0
319 326 0
283 328 0
291 318 0
305 318 0
307 299 0
343 312 0
345 325 0
397 296 0
386 272 0
405 259 0
359 246 0
361 89 0
340 102 0
358 106 0
346 253 0
337 202 0
325 197 0
297 146 0
312 170 0
334 191 0
314 74 0
297 51 0
315 46 0
323 42 0
327 19 0
338 29 0
338 82 0
353 60 0
344 31 0
344 18 0
389 10 0
420 16 0
403 17 0
387 39 0
374 23 0
370 52 0
376 214 0
390 203 0
385 95 0
376 84 0
423 12 0
422 79 0
446 35 0
522 17 0
428 13 0
518 8 0
424 10 0
428 3 0
430 4 0
467 4 0
16 1 0
4 3 0
2 1 0
29 3 0
34 2 0
68 3 0
57 4 0
40 4 0
36 3 0
32 5 0
59 5 0
68 6 0
62 12 0
30 12 0
14 10 0
13 5 0
1 6 0
9 9 0
1 11 0
0 21 0
6 13 0
9 33 0
6 30 0
0 36 0
3 40 0
0 45 0
9 50 0
9 41 0
7 38 0
18 41 0
43 42 0
66 71 0
71 30 0
65 25 0
74 24 0
11 21 0
42 14 0
67 18 0
72 16 0
81 24 0
91 24 0
93 37 0
88 30 0
77 30 0
89 42 0
87 61 0
96 74 0
98 54 0
97 47 0
105 56 0
111 75 0
121 69 0
128 38 0
112 37 0
130 34 0
116 35 0
110 32 0
111 23 0
123 32 0
121 18 0
131 14 0
109 10 0
99 14 0
108 16 0
89 22 0
84 23 0
88 16 0
92 16 0
93 13 0
82 9 0
79 3 0
77 1 0
90 2 0
99 1 0
107 1 0
109 1 0
112 10 0
114 3 0
112 1 0
149 22 0
150 1 0
152 42 0
137 38 0
134 34 0
134 44 0
139 45 0
153 49 0
149 48 0
144 42 0
161 41 0
164 51 0
177 50 0
174 47 0
169 38 0
172 29 0
168 32 0
154 22 0
165 1 0
169 6 0
180 1 0
178 28 0
194 19 0
200 14 0
188 1 0
225 1 0
231 1 0
287 13 0
218 20 0
207 7 0
219 34 0
229 30 0
217 48 0
212 43 0
202 49 0
200 52 0
190 40 0
189 44 0
182 45 0
186 52 0
199 55 0
200 59 0
230 62 0
243 59 0
233 54 0
255 55 0
279 58 0
288 62 0
258 58 0
254 60 0
265 65 0
272 66 0
271 69 0
268 75 0
268 72 0
258 65 0
262 63 0
218 68 0
226 70 0
236 74 0
186 68 0
183 69 0
184 62 0
192 67 0
195 64 0
195 55 0
196 53 0
190 54 0
190 60 0
191 62 0
157 61 0
180 53 0
140 55 0
153 56 0
145 56 0
143 61 0
171 64 0
166 65 0
145 69 0
135 68 0
186 83 0
183 81 0
186 80 0
186 87 0
181 105 0
180 135 0
187 123 0
191 98 0
182 87 0
195 101 0
199 112 0
212 123 0
219 121 0
222 96 0
224 89 0
207 85 0
193 76 0
200 83 0
226 79 0
233 88 0
231 97 0
263 90 0
263 86 0
259 81 0
269 82 0
281 86 0
287 86 0
287 97 0
267 97 0
274 102 0
283 99 0
284 137 0
273 138 0
266 113 0
255 118 0
251 113 0
226 123 0
239 143 0
232 143 0
238 269 0
249 305 0
253 306 0
275 154 0
251 147 0
276 149 0
279 158 0
283 266 0
279 315 0
278 164 0
281 325 0
290 315 0
288 325 0
282 332 0
270 347 0
250 352 0
247 330 0
237 318 0
244 344 0
236 346 0
232 352 0
223 347 0
219 342 0
232 344 0
235 341 0
233 337 0
221 335 0
211 159 0
211 329 0
205 338 0
201 194 0
194 181 0
181 219 0
182 238 0
182 246 0
182 258 0
198 303 0
200 351 0
191 312 0
181 330 0
161 346 0
177 321 0
151 294 0
146 337 0
148 349 0
140 322 0
125 333 0
116 318 0
130 303 0
139 314 0
135 279 0
123 270 0
131 209 0
145 235 0
153 245 0
155 210 0
162 250 0
162 283 0
173 226 0
163 205 0
170 156 0
162 172 0
161 100 0
173 101 0
179 110 0
170 87 0
169 82 0
167 76 0
167 88 0
164 96 0
147 114 0
152 84 0
115 76 0
132 91 0
144 96 0
119 137 0
133 144 0
156 204 0
146 192 0
128 152 0
110 224 0
92 214 0
92 205 0
93 209 0
113 200 0
113 139 0
108 84 0
94 80 0
105 81 0
104 86 0
90 135 0
90 77 0
88 83 0
11 84 0
86 91 0
43 187 0
74 212 0
86 224 0
84 215 0
80 213 0
35 256 0
42 270 0
61 266 0
49 264 0
72 264 0
88 236 0
103 234 0
107 241 0
100 240 0
75 261 0
48 271 0
96 273 0
65 292 0
55 293 0
41 287 0
18 323 0
13 272 0
0 274 0
0 322 0
0 343 0
49 363 0
107 360 0
106 368 0
107 373 0
52 401 0
62 404 0
102 380 0
73 378 0
83 378 0
113 379 0
111 389 0
125 396 0
119 394 0
119 378 0
122 372 0
114 367 0
109 353 0
116 356 0
126 353 0
130 357 0
126 365 0
153 371 0
133 361 0
155 358 0
184 354 0
237 355 0
232 369 0
205 372 0
160 367 0
213 377 0
228 384 0
222 403 0
219 384 0
192 391 0
184 378 0
172 374 0
138 374 0
133 401 0
145 403 0
100 407 0
97 413 0
147 420 0
107 418 0
109 408 0
215 411 0
233 406 0
238 419 0
209 419 0
177 417 0
199 422 0
209 430 0
223 447 0
219 433 0
158 445 0
123 436 0
131 431 0
98 422 0
100 431 0
115 435 0
78 441 0
38 443 0
57 436 0
68 431 0
96 426 0
86 417 0
84 409 0
44 408 0
48 412 0
40 412 0
37 419 0
38 409 0
28 422 0
31 426 0
27 427 0
21 428 0
31 429 0
36 434 0
34 439 0
31 437 0
19 455 0
7 464 0
38 461 0
49 458 0
45 456 0
55 452 0
167 449 0
179 461 0
175 466 0
52 463 0
181 473 0
192 477 0
192 494 0
189 489 0
181 495 0
175 493 0
179 490 0
0 473 0
55 483 0
146 485 0
130 496 0
143 533 0
140 554 0
0 540 0
0 588 0
0 638 0
0 652 0
6 641 0
0 627 0
23 626 0
181 655 0
151 655 0
187 563 0
190 544 0
189 538 0
156 511 0
155 537 0
148 509 0
149 499 0
161 501 0
204 546 0
225 536 0
213 546 0
200 550 0
200 546 0
198 555 0
194 566 0
227 585 0
206 561 0
210 551 0
231 604 0
234 610 0
238 655 0
240 617 0
237 600 0
229 590 0
228 575 0
229 554 0
234 569 0
235 532 0
233 524 0
230 521 0
223 518 0
219 519 0
222 523 0
218 528 0
203 526 0
207 520 0
210 525 0
212 515 0
214 512 0
212 506 0
207 493 0
207 478 0
220 466 0
228 475 0
224 510 0
240 498 0
232 469 0
235 453 0
253 450 0
243 449 0
252 439 0
255 446 0
258 437 0
258 435 0
258 451 0
256 451 0
255 442 0
254 459 0
255 457 0
257 460 0
257 472 0
254 482 0
251 482 0
252 463 0
247 455 0
240 473 0
249 486 0
243 488 0
244 531 0
246 580 0
244 592 0
241 588 0
241 602 0
240 623 0
245 649 0
246 623 0
243 598 0
252 652 0
253 655 0
259 655 0
260 588 0
255 579 0
258 521 0
256 502 0
251 490 0
257 491 0
259 499 0
269 588 0
270 605 0
270 622 0
269 627 0
262 610 0
262 651 0
261 655 0
263 655 0
268 648 0
266 630 0
277 635 0
272 648 0
280 655 0
286 624 0
289 616 0
283 614 0
277 608 0
280 601 0
285 568 0
285 540 0
284 524 0
284 496 0
283 491 0
282 506 0
280 525 0
276 539 0
261 535 0
266 488 0
271 500 0
274 504 0
261 463 0
260 479 0
260 438 0
264 440 0
265 442 0
265 436 0
270 437 0
270 473 0
283 444 0
275 435 0
289 430 0
285 431 0
279 427 0
285 425 0
288 422 0
287 419 0
285 391 0
281 390 0
280 416 0
285 421 0
273 414 0
277 388 0
269 390 0
272 403 0
270 407 0
275 427 0
278 418 0
278 435 0
277 429 0
270 431 0
268 432 0
266 428 0
262 428 0
266 432 0
260 432 0
259 430 0
256 431 0
243 429 0
250 417 0
257 428 0
253 404 0
245 399 0
248 397 0
255 390 0
255 395 0
266 396 0
261 405 0
267 417 0
268 402 0
268 398 0
273 388 0
268 384 0
265 371 0
263 371 0
263 385 0
254 384 0
241 385 0
246 377 0
257 371 0
262 373 0
266 369 0
262 368 0
255 366 0
262 366 0
266 358 0
267 356 0
266 361 0
272 364 0
275 362 0
273 358 0
277 358 0
281 362 0
278 375 0
277 366 0
276 375 0
276 385 0
[...]
CELL_DATA 13297
COLOR_SCALARS ColorSpace 1
0.71634
0.284967
0.166013
0.904575
0.156863
0.917647
0.0797386
0.0627451
0.122876
0.301961
0.16732
0.34902
0.334641
0.896732
0.886275
0.0653595
0.265359
0.121569
0.475817
0.701961
0.917647
0.273203
0.243137
0.913725
0.871895
0.322876
0.869281
0.461438
0.36732
0.25098
0.0875817
0.181699
0.894118
0.917647
0.244444
0.75817
0.249673
0.560784
0.917647
0.91634
0.24183
0.678431
0.633987
0.895425
0.670588
0.626144
0.249673
0.424837
0.261438
0.918954
0.39085
0.917647
0.917647
0.895425
0.917647
0.91634
0.175163
0.126797
0.636601
0.230065
0.270588
0.0849673
0.917647
0.35817
0.686275
0.146405
0.0627451
0.620915
0.635294
0.665359
0.777778
0.768627
0.484967
0.403922
0.377778
0.917647
0.494118
0.397386
0.179085
0.210458
0.253595
0.895425
0.470588
0.186928
0.487582
0.918954
0.732026
0.917647
0.68366
0.267974
0.135948
0.781699
0.690196
0.918954
0.780392
0.172549
0.273203
0.436601
0.917647
0.267974
0.267974
0.904575
0.698039
0.918954
0.87451
0.913725
0.261438
0.633987
0.179085
0.711111
0.196078
0.624837
0.266667
0.419608
0.45098
0.780392
0.65098
0.766013
0.637908
0.776471
0.637908
0.284967
0.369935
0.424837
0.28366
0.780392
0.406536
0.449673
0.113725
0.069281
0.0745098
0.253595
0.780392
0.477124
0.143791
0.164706
0.866667
0.532026
0.181699
0.360784
0.917647
0.639216
0.202614
0.640523
0.896732
0.917647
0.633987
0.917647
0.266667
0.430065
0.917647
0.628758
0.917647
0.678431
0.912418
0.214379
0.075817
0.2
0.138562
0.2
0.445752
0.888889
0.688889
0.917647
0.917647
0.0627451
0.124183
0.256209
0.647059
0.918954
0.65098
0.34902
0.870588
0.103268
0.219608
0.704575
0.206536
0.223529
0.780392
0.356863
0.205229
0.580392
0.616993
0.405229
0.624837
0.252288
0.917647
0.918954
0.921569
0.0679739
0.91634
0.24183
0.911111
0.911111
0.917647
0.917647
0.0849673
0.917647
0.287582
0.484967
0.917647
0.917647
0.920261
0.917647
0.918954
0.89281
0.0784314
0.260131
0.91634
0.198693
0.16732
0.917647
0.899346
0.610458
0.261438
0.342484
0.890196
0.129412
0.0627451
0.262745
0.895425
0.205229
0.898039
0.128105
0.891503
0.34902
0.201307
0.616993
0.0627451
0.630065
0.0666667
0.0705882
0.0640523
0.0653595
0.350327
0.34902
0.253595
0.877124
0.139869
0.920261
0.375163
0.900654
0.0954248
0.146405
0.0627451
0.0836601
0.0627451
0.917647
0.917647
0.338562
0.896732
0.917647
0.0627451
0.0627451
0.0627451
0.0627451
0.901961
0.0928105
0.247059
0.635294
0.397386
0.709804
0.920261
0.0640523
0.249673
0.0627451
0.921569
0.899346
0.193464
0.339869
0.258824
0.911111
0.619608
0.635294
0.0784314
0.918954
0.91634
0.635294
0.265359
0.909804
0.499346
0.147712
0.11634
0.0627451
0.912418
0.352941
0.917647
0.0627451
0.0915033
0.715033
0.91634
0.210458
0.32549
0.481046
0.894118
0.198693
0.0627451
0.780392
0.363399
0.780392
0.870588
0.461438
0.643137
0.419608
0.27451
0.580392
0.267974
0.539869
0.288889
0.222222
0.245752
0.780392
0.265359
0.220915
0.226144
0.415686
0.159477
0.918954
0.416993
0.478431
0.227451
0.636601
0.918954
0.728105
0.219608
0.230065
0.627451
0.279739
0.351634
0.16732
0.368627
0.278431
0.252288
0.262745
0.168627
0.261438
0.205229
0.87451
0.352941
0.619608
0.917647
0.619608
0.917647
0.917647
0.616993
0.138562
0.917647
0.917647
0.913725
0.639216
0.145098
0.917647
0.917647
0.918954
0.917647
0.437908
0.270588
0.181699
0.20915
0.271895
0.213072
0.236601
0.49281
0.262745
0.266667
0.383007
0.175163
0.580392
0.117647
0.619608
0.101961
0.65098
0.652288
0.762092
0.667974
0.428758
0.109804
0.776471
0.713725
0.360784
0.915033
0.256209
0.265359
0.261438
0.700654
0.91634
0.896732
0.917647
0.196078
0.427451
0.91634
0.909804
0.273203
0.917647
0.915033
0.649673
0.917647
0.19085
0.908497
0.262745
0.917647
0.913725
0.917647
0.917647
0.917647
0.701961
0.917647
0.670588
0.917647
0.383007
0.766013
0.79085
0.206536
0.188235
0.671895
0.917647
0.917647
0.785621
0.456209
0.618301
0.420915
0.79085
0.270588
0.321569
0.780392
0.730719
0.160784
0.677124
0.239216
0.759477
0.783007
0.138562
0.877124
0.50719
0.501961
0.537255
0.379085
0.735948
0.786928
0.207843
0.101961
0.423529
0.262745
0.681046
0.288889
0.918954
0.917647
0.917647
0.915033
0.657516
0.630065
0.465359
0.227451
0.150327
0.223529
0.205229
0.269281
0.202614
0.0627451
0.866667
0.201307
0.858824
0.473203
0.252288
0.780392
0.477124
0.237908
0.569935
0.543791
0.624837
0.74902
0.369935
0.806536
0.118954
0.481046
0.454902
0.179085
0.294118
0.135948
0.72549
0.0980392
0.113725
0.14902
0.154248
0.113725
0.166013
0.0666667
0.315033
0.227451
0.142484
0.192157
0.437908
0.0941176
0.294118
0.266667
0.588235
0.202614
0.295425
0.210458
0.188235
0.180392
0.496732
0.698039
0.262745
0.71634
0.866667
0.427451
0.308497
0.785621
0.415686
0.755556
0.866667
0.737255
0.542484
0.465359
0.49281
0.464052
0.177778
0.15817
0.156863
0.145098
0.385621
0.649673
0.866667
0.687582
0.487582
0.87451
0.547712
0.294118
0.498039
0.881046
0.724183
0.460131
0.0915033
0.721569
0.564706
0.0627451
0.499346
0.0718954
0.0745098
0.780392
0.155556
0.835294
0.815686
0.816993
0.866667
0.780392
0.781699
0.722876
0.678431
0.075817
0.20915
0.0901961
0.222222
0.0627451
0.718954
0.0718954
0.196078
0.0627451
0.918954
0.917647
0.917647
0.917647
0.917647
0.243137
0.627451
0.917647
0.341176
0.900654
0.635294
0.917647
0.694118
0.917647
0.466667
0.196078
0.901961
0.215686
0.635294
0.265359
0.0679739
0.249673
0.461438
0.654902
0.579085
0.89281
0.0627451
0.360784
0.481046
0.201307
0.467974
0.654902
0.867974
0.290196
0.416993
0.23268
0.186928
0.48366
0.311111
0.0640523
0.286275
0.63268
0.138562
0.917647
0.427451
0.918954
0.416993
0.909804
0.917647
0.388235
0.917647
0.917647
0.917647
0.0745098
0.917647
0.633987
0.917647
0.917647
0.918954
0.0627451
0.607843
0.670588
0.192157
0.196078
0.917647
0.917647
0.0928105
0.339869
0.216993
0.482353
0.169935
0.308497
0.202614
0.709804
0.703268
0.656209
0.0705882
0.318954
0.592157
0.0862745
0.681046
0.636601
0.305882
0.589542
0.870588
0.509804
0.754248
0.0836601
0.265359
0.254902
0.260131
0.351634
0.524183
0.670588
0.564706
0.708497
0.50719
0.679739
0.628758
0.806536
0.678431
0.686275
0.479739
0.917647
0.915033
0.243137
0.637908
0.360784
0.91634
0.233987
0.917647
0.173856
0.918954
0.636601
0.917647
0.163399
0.917647
0.260131
0.36732
0.91634
0.129412
0.243137
0.256209
0.264052
0.155556
0.359477
0.233987
0.342484
0.620915
0.449673
0.888889
0.635294
0.72549
0.249673
0.917647
0.24183
0.227451
0.372549
0.226144
0.437908
0.577778
0.709804
0.499346
0.68366
0.764706
0.152941
0.248366
0.843137
0.745098
0.147712
0.294118
0.542484
0.796078
0.72549
0.649673
0.430065
0.738562
0.777778
0.155556
0.867974
0.875817
0.796078
0.210458
0.673203
0.4
0.500654
0.478431
0.550327
0.636601
0.742484
0.54902
0.776471
0.624837
0.779085
0.745098
0.713725
0.491503
0.256209
0.249673
0.19085
0.645752
0.741176
0.614379
0.888889
0.239216
0.639216
0.270588
0.899346
0.917647
0.575163
0.698039
0.437908
0.661438
0.443137
0.780392
0.118954
0.245752
0.63268
0.240523
0.637908
0.240523
0.256209
0.338562
0.25098
0.635294
0.35817
0.602614
0.315033
0.0653595
0.917647
0.917647
0.25098
0.911111
0.244444
0.912418
0.890196
0.11634
0.881046
0.901961
0.917647
0.703268
0.635294
0.0928105
0.0640523
0.270588
0.0954248
0.899346
0.329412
0.362092
0.0732026
0.886275
0.249673
0.34902
0.917647
0.171242
0.917647
0.917647
0.184314
0.920261
0.915033
0.369935
0.0627451
0.202614
0.917647
0.0627451
0.20915
0.0627451
0.884967
0.347712
0.0627451
0.63268
0.917647
0.347712
0.909804
0.63268
0.917647
0.917647
0.837908
0.631373
0.660131
0.389542
0.917647
0.100654
0.91634
0.637908
0.181699
0.920261
0.918954
0.0627451
0.126797
0.917647
0.917647
0.89281
0.069281
0.60915
0.351634
0.354248
0.239216
0.0653595
0.90719
0.635294
0.908497
0.34902
0.247059
0.117647
0.637908
0.192157
0.239216
0.667974
0.138562
0.915033
0.91634
0.618301
0.262745
0.899346
0.394771
0.2
0.401307
0.899346
0.448366
0.900654
0.694118
0.703268
0.915033
0.917647
0.89281
0.487582
0.917647
0.487582
0.91634
0.2
0.864052
0.16732
0.359477
0.91634
0.108497
0.258824
0.35817
0.257516
0.196078
0.613072
0.0993464
0.254902
0.244444
0.371242
0.186928
0.627451
0.628758
0.895425
0.912418
0.628758
0.329412
0.88366
0.0627451
0.915033
0.254902
0.126797
0.484967
0.341176
0.233987
0.266667
0.249673
0.918954
0.226144
0.918954
0.264052
0.453595
0.265359
0.254902
0.16732
0.917647
0.260131
0.622222
0.269281
0.265359
0.905882
0.410458
0.075817
0.198693
0.0627451
0.069281
0.180392
0.346405
0.905882
0.920261
0.913725
0.0627451
0.0627451
0.882353
0.359477
0.329412
0.0823529
0.63268
0.0627451
0.0627451
0.0627451
0.0627451
0.920261
0.0797386
0.0627451
0.904575
0.0771242
0.901961
0.341176
0.350327
0.890196
0.0823529
0.0627451
0.0627451
0.0666667
0.0627451
0.0627451
0.0823529
0.0627451
0.342484
0.0771242
0.332026
0.337255
0.917647
0.0705882
0.347712
0.901961
0.917647
0.63268
0.347712
0.913725
0.917647
0.635294
0.908497
0.91634
0.918954
0.637908
0.915033
0.369935
0.636601
0.624837
0.23268
0.636601
0.350327
0.156863
0.122876
0.913725
0.875817
0.379085
0.104575
0.633987
0.166013
0.388235
0.628758
0.911111
0.0627451
0.0627451
0.069281
0.917647
0.0627451
0.075817
0.0627451
0.350327
0.909804
0.917647
0.917647
0.917647
0.917647
0.347712
0.364706
0.63268
0.917647
0.917647
0.635294
0.918954
0.917647
0.900654
0.917647
0.917647
0.917647
0.658824
0.917647
0.917647
0.376471
0.615686
0.0627451
0.917647
0.0627451
0.0627451
0.0627451
0.0627451
0.34902
0.360784
0.0627451
0.616993
0.0627451
0.352941
0.0627451
0.630065
0.631373
0.0627451
0.173856
0.197386
0.616993
0.576471
0.888889
0.900654
0.355556
0.0627451
0.0627451
0.633987
0.0627451
0.0627451
0.34902
0.0928105
0.254902
0.917647
0.63268
0.624837
0.920261
0.917647
0.918954
0.918954
0.894118
0.921569
0.394771
0.0915033
0.428758
0.154248
0.640523
0.211765
0.921569
0.661438
0.918954
0.0627451
0.918954
0.366013
0.0627451
0.0745098
0.0627451
0.920261
0.64183
0.0627451
0.0627451
0.384314
0.640523
0.244444
0.211765
0.203922
0.918954
0.152941
0.0784314
0.364706
0.0797386
0.913725
0.865359
0.34902
0.132026
0.918954
0.096732
0.146405
0.0888889
0.146405
0.260131
0.166013
0.166013
0.628758
0.184314
0.464052
0.254902
0.216993
0.269281
0.19085
0.265359
0.260131
0.0954248
0.240523
0.918954
0.265359
0.235294
0.20915
0.228758
0.218301
0.920261
0.428758
0.636601
0.0627451
0.0653595
0.0627451
0.875817
0.0784314
0.355556
0.115033
0.452288
0.24183
0.210458
0.218301
0.918954
0.124183
0.908497
0.0836601
0.918954
0.635294
0.366013
0.16732
0.147712
0.712418
0.633987
0.176471
0.918954
0.631373
0.643137
0.918954
0.0627451
0.35817
0.345098
0.0640523
0.635294
0.918954
0.0627451
0.347712
0.356863
0.347712
0.64183
0.91634
0.0627451
0.6
0.346405
0.0627451
0.0640523
0.0627451
0.392157
0.10719
0.120261
0.0915033
0.228758
0.163399
0.352941
0.633987
0.88366
0.677124
0.918954
0.920261
0.920261
0.0627451
0.35817
0.918954
0.171242
0.164706
0.917647
0.180392
0.633987
0.738562
0.16732
0.918954
0.0745098
0.0705882
0.701961
0.0679739
0.71634
0.647059
0.247059
0.739869
0.637908
0.321569
0.739869
0.369935
0.695425
0.197386
0.362092
0.698039
0.303268
0.726797
0.781699
0.703268
0.780392
0.780392
0.780392
0.760784
0.780392
0.249673
0.679739
0.579085
0.675817
0.649673
0.296732
0.664052
0.732026
0.784314
0.784314
0.635294
0.206536
0.145098
0.718954
0.550327
0.653595
0.207843
0.132026
0.284967
0.247059
0.260131
0.254902
0.261438
0.143791
0.19085
0.179085
0.431373
0.644444
0.457516
0.386928
0.784314
0.541176
0.54902
0.15817
0.224837
0.777778
0.201307
0.592157
0.19085
0.155556
0.214379
0.780392
0.252288
0.611765
0.196078
0.309804
0.917647
0.317647
0.201307
0.780392
0.262745
0.317647
0.917647
0.533333
0.487582
0.19085
0.233987
0.768627
0.220915
0.147712
0.479739
0.213072
0.264052
0.181699
0.214379
0.701961
0.228758
0.249673
0.236601
0.682353
0.194771
0.23268
0.240523
0.176471
0.260131
0.917647
0.253595
0.660131
0.0745098
0.215686
0.240523
0.698039
0.917647
0.917647
0.227451
0.91634
0.256209
0.48366
0.917647
0.691503
0.918954
0.894118
0.179085
0.206536
0.484967
0.206536
0.25098
0.142484
0.473203
0.256209
0.918954
0.436601
0.186928
0.318954
0.470588
0.24183
0.224837
0.075817
0.619608
0.122876
0.264052
0.912418
0.896732
0.219608
0.869281
0.249673
0.669281
0.614379
0.908497
0.384314
0.383007
0.249673
0.186928
0.265359
0.265359
0.900654
0.626144
0.257516
0.188235
0.222222
0.260131
0.257516
0.635294
0.196078
0.260131
0.640523
0.422222
0.49281
0.679739
0.207843
0.460131
0.256209
0.917647
0.909804
0.917647
0.462745
0.901961
0.918954
0.267974
0.266667
0.266667
0.920261
0.252288
0.34902
0.636601
0.899346
0.918954
0.0888889
0.905882
0.121569
0.890196
0.249673
0.699346
0.905882
0.91634
0.681046
0.210458
0.917647
0.91634
0.894118
0.248366
0.917647
0.91634
0.917647
0.423529
0.430065
0.216993
0.339869
0.917647
0.898039
0.611765
0.917647
0.917647
0.917647
0.917647
0.334641
0.420915
0.917647
0.377778
0.918954
0.43268
0.220915
0.383007
0.915033
0.917647
0.645752
0.631373
0.291503
0.917647
0.373856
0.216993
0.917647
0.615686
0.428758
0.917647
0.917647
0.39085
0.658824
0.635294
0.917647
0.917647
0.917647
0.917647
0.917647
0.917647
0.917647
0.917647
0.917647
0.917647
0.901961
0.917647
0.402614
0.183007
0.257516
0.380392
0.12549
0.63268
0.35817
0.477124
0.620915
0.266667
0.254902
0.418301
0.253595
0.917647
0.133333
0.636601
0.186928
0.901961
0.669281
0.375163
0.654902
0.909804
0.47451
0.912418
0.249673
0.913725
0.256209
0.248366
0.635294
0.267974
0.233987
0.273203
0.437908
0.267974
0.192157
0.275817
0.20915
0.903268
0.420915
0.264052
0.198693
0.224837
0.694118
0.2
0.249673
0.20915
0.275817
0.201307
0.235294
0.267974
0.139869
0.512418
0.271895
0.231373
0.211765
0.275817
0.132026
0.207843
0.100654
0.656209
0.207843
0.613072
0.211765
0.760784
0.445752
0.667974
0.598693
0.65098
0.177778
0.214379
0.264052
0.270588
0.335948
0.269281
0.317647
0.211765
0.687582
0.248366
0.181699
0.265359
0.403922
0.91634
0.898039
0.918954
0.645752
0.584314
0.350327
0.134641
0.15817
0.133333
0.134641
0.700654
0.151634
0.54902
0.137255
0.68366
0.783007
0.785621
0.712418
0.72549
0.471895
0.296732
0.470588
0.265359
0.529412
0.469281
0.273203
0.245752
0.262745
0.915033
0.662745
0.198693
0.918954
0.247059
0.372549
0.273203
0.264052
0.624837
0.405229
0.152941
0.269281
0.267974
0.15817
0.410458
0.261438
0.258824
0.262745
0.256209
0.203922
0.392157
0.917647
0.375163
0.265359
0.15817
0.266667
0.25098
0.171242
0.917647
0.694118
0.622222
0.903268
0.389542
0.905882
0.882353
0.896732
0.917647
0.917647
0.660131
0.686275
0.207843
0.354248
0.407843
0.403922
0.637908
0.90719
0.918954
0.917647
0.917647
0.917647
0.635294
0.917647
0.215686
0.917647
0.096732
0.915033
0.375163
0.270588
0.219608
0.780392
0.196078
0.780392
0.261438
0.2
0.709804
0.915033
0.173856
0.328105
0.797386
0.788235
0.430065
0.264052
0.550327
0.269281
0.330719
0.900654
0.266667
0.264052
0.500654
0.264052
0.917647
0.917647
0.917647
0.270588
0.918954
0.266667
0.917647
0.411765
0.908497
0.903268
0.917647
0.917647
0.917647
0.917647
0.917647
0.917647
0.917647
0.917647
0.917647
0.917647
0.917647
0.644444
0.917647
0.469281
0.257516
0.254902
0.414379
0.269281
0.909804
0.484967
0.917647
0.266667
0.477124
0.267974
0.270588
0.239216
0.270588
0.903268
0.330719
0.120261
0.117647
0.210458
0.206536
0.920261
0.184314
0.908497
0.903268
0.627451
0.380392
0.915033
0.884967
0.662745
0.262745
0.645752
0.222222
0.240523
0.166013
0.917647
0.206536
0.918954
0.695425
0.917647
0.63268
0.912418
0.917647
0.372549
0.912418
0.138562
0.180392
0.137255
0.210458
0.128105
0.169935
0.258824
0.186928
0.197386
0.542484
0.368627
0.573856
0.56732
0.471895
0.756863
0.495425
0.686275
0.312418
0.611765
0.375163
0.662745
0.270588
0.184314
0.265359
0.260131
0.267974
0.253595
0.252288
0.266667
0.298039
0.220915
0.759477
0.193464
0.773856
0.79085
0.783007
0.745098
0.65098
0.0888889
0.444444
0.780392
0.351634
0.777778
0.785621
0.703268
0.667974
0.096732
0.184314
0.16732
0.478431
0.803922
0.235294
0.171242
0.848366
0.145098
0.596078
0.741176
0.56732
0.155556
0.233987
0.85098
0.228758
0.535948
0.464052
0.32549
0.505882
0.690196
0.126797
0.54902
0.503268
0.532026
0.45098
0.457516
0.420915
0.575163
0.537255
0.678431
0.586928
0.224837
0.398693
0.0901961
0.120261
0.376471
0.453595
0.104575
0.147712
0.128105
0.341176
0.126797
0.28366
0.249673
0.265359
0.257516
0.256209
0.205229
0.691503
0.69281
0.691503
0.173856
0.627451
0.917647
0.899346
0.351634
0.637908
0.91634
0.478431
0.206536
0.917647
0.917647
0.875817
0.918954
0.266667
0.20915
0.266667
0.265359
0.522876
0.069281
0.603922
0.780392
0.751634
0.151634
0.780392
0.371242
0.671895
0.44183
0.260131
0.265359
0.133333
0.247059
0.243137
0.917647
0.128105
0.63268
0.393464
0.228758
0.918954
0.917647
0.886275
0.633987
0.0745098
0.403922
0.249673
0.636601
0.917647
0.11634
0.639216
0.917647
0.917647
0.917647
0.109804
0.90719
0.610458
0.857516
0.917647
0.433987
0.223529
0.917647
0.236601
0.265359
0.264052
0.213072
0.0627451
0.202614
0.328105
0.777778
0.786928
0.763399
0.780392
0.64183
0.573856
0.0627451
0.32549
0.264052
0.171242
0.132026
0.253595
0.777778
0.223529
0.647059
0.784314
0.769935
0.296732
0.762092
0.721569
0.734641
0.789542
0.623529
0.352941
0.594771
0.350327
0.559477
0.56732
0.304575
0.224837
0.781699
0.198693
0.756863
0.773856
0.682353
0.780392
0.410458
0.0901961
0.372549
0.564706
0.576471
0.589542
0.338562
0.100654
0.87451
0.733333
0.477124
0.745098
0.524183
0.79085
0.802614
0.508497
0.332026
0.751634
0.775163
0.403922
0.713725
0.866667
0.849673
0.169935
0.267974
0.28366
0.326797
0.180392
0.315033
0.423529
0.168627
0.166013
0.84183
0.150327
0.864052
0.291503
0.656209
0.741176
0.64183
0.213072
0.584314
0.43268
0.146405
0.244444
0.11634
0.852288
0.128105
0.747712
0.145098
0.0836601
0.111111
0.101961
0.288889
0.87451
0.822222
0.103268
0.146405
0.128105
0.300654
0.253595
0.154248
0.75817
0.219608
0.159477
0.298039
0.154248
0.848366
0.162092
0.827451
0.23268
0.569935
0.147712
0.134641
0.469281
0.159477
0.155556
0.273203
0.288889
0.456209
0.699346
0.20915
0.298039
0.372549
0.383007
0.456209
0.303268
0.214379
0.164706
0.539869
0.418301
0.762092
0.245752
0.737255
0.607843
0.254902
0.547712
0.430065
0.135948
0.596078
0.803922
0.700654
0.854902
0.303268
0.277124
0.637908
0.355556
0.780392
0.466667
0.28366
0.828758
0.402614
0.346405
0.741176
0.559477
0.763399
0.724183
0.860131
0.543791
0.871895
0.539869
0.487582
0.577778
0.205229
0.74902
0.294118
0.869281
0.836601
0.529412
0.870588
0.826144
0.215686
0.695425
0.277124
0.278431
0.166013
0.214379
0.435294
0.383007
0.288889
0.372549
0.520261
0.601307
0.258824
0.135948
0.448366
0.36732
0.326797
0.488889
0.197386
0.39085
0.471895
0.601307
0.329412
0.465359
0.890196
0.888889
0.278431
0.205229
0.865359
0.418301
0.777778
0.443137
0.243137
0.585621
0.317647
0.803922
0.183007
0.500654
0.411765
0.337255
0.15817
0.449673
0.363399
0.500654
0.156863
0.162092
0.162092
0.16732
0.29281
0.368627
0.145098
0.338562
0.137255
0.135948
0.113725
0.147712
0.142484
0.866667
0.105882
0.172549
0.152941
0.146405
0.145098
0.8
0.11634
0.313725
0.870588
0.410458
0.562092
0.154248
0.160784
0.183007
0.175163
0.308497
0.766013
0.155556
0.261438
0.645752
0.867974
0.150327
0.301961
0.735948
0.735948
0.25098
0.249673
0.152941
0.257516
0.245752
0.14902
0.247059
0.870588
0.823529
0.143791
0.377778
0.858824
0.85098
0.503268
0.871895
0.764706
0.564706
0.124183
0.145098
0.109804
0.201307
0.828758
0.189542
0.333333
0.364706
0.896732
0.138562
0.27451
0.830065
0.870588
0.747712
0.218301
0.0849673
0.312418
0.0993464
0.112418
0.145098
0.121569
0.505882
0.871895
0.29281
0.886275
0.592157
0.475817
0.373856
0.494118
0.535948
0.743791
0.373856
0.532026
0.203922
0.690196
0.456209
0.682353
0.101961
0.681046
0.696732
0.383007
0.0679739
0.420915
0.635294
0.350327
0.288889
0.460131
0.444444
0.222222
0.334641
0.687582
0.469281
0.43268
0.264052
0.466667
0.755556
0.690196
0.416993
0.262745
0.32549
0.552941
0.743791
0.826144
0.867974
0.0928105
0.87451
0.796078
0.303268
0.524183
0.0679739
0.87451
0.818301
0.810458
0.739869
0.138562
0.475817
0.133333
0.335948
0.870588
0.849673
0.129412
0.205229
0.87451
0.273203
0.711111
0.769935
0.288889
0.575163
0.29281
0.780392
0.0784314
0.856209
0.0627451
0.0718954
0.0640523
0.25098
0.712418
0.266667
0.734641
0.755556
0.750327
0.708497
0.298039
0.0875817
0.551634