# vtk DataFile Version 1.0
Unstructured Grid Example
ASCII

DATASET UNSTRUCTURED_GRID
POINTS 21884 float
70 208 0
199 557 0
429 474 0
376 410 0
335 40 0
265 308 0
116 27 0
192 227 0
25 2 0
51 434 0
198 441 0
99 471 0
42 513 0
289 509 0
298 536 0
506 499 0
516 353 0
496 341 0
303 112 0
286 162 0
518 70 0
94 16 0
22 9 0
30 61 0
96 1 0
154 12 0
189 29 0
265 51 0
218 4 0
182 235 0
264 71 0
132 224 0
132 64 0
130 90 0
78 79 0
52 257 0
102 365 0
111 405 0
139 387 0
96 427 0
57 468 0
35 484 0
154 543 0
160 655 0
49 634 0
214 579 0
275 614 0
249 641 0
265 649 0
265 526 0
203 470 0
261 416 0
265 402 0
310 432 0
307 403 0
338 435 0
349 523 0
301 587 0
308 629 0
323 655 0
305 620 0
351 511 0
393 602 0
376 523 0
416 554 0
518 465 0
350 444 0
401 423 0
472 392 0
434 379 0
522 307 0
477 341 0
492 326 0
372 387 0
354 344 0
330 303 0
331 296 0
376 69 0
374 119 0
302 106 0
395 281 0
433 100 0
445 26 0
433 263 0
522 77 0
52 17 0
72 8 0
26 24 0
19 42 0
69 51 0
47 89 0
14 89 0
29 72 0
97 77 0
108 87 0
88 38 0
87 52 0
82 37 0
123 31 0
117 24 0
85 11 0
154 61 0
136 10 0
145 31 0
180 24 0
185 62 0
222 28 0
208 54 0
191 3 0
211 65 0
214 87 0
265 76 0
196 66 0
184 89 0
172 83 0
170 78 0
128 66 0
224 90 0
203 124 0
153 129 0
197 111 0
244 98 0
255 181 0
259 158 0
261 103 0
208 183 0
214 264 0
251 291 0
186 204 0
156 246 0
152 191 0
150 239 0
135 229 0
82 276 0
92 281 0
98 249 0
125 244 0
85 212 0
108 202 0
90 124 0
113 135 0
20 190 0
60 150 0
63 178 0
0 208 0
71 238 0
49 255 0
56 266 0
55 289 0
90 374 0
84 325 0
74 322 0
61 300 0
123 297 0
133 396 0
147 354 0
153 369 0
100 397 0
144 426 0
133 473 0
88 426 0
78 421 0
27 416 0
0 425 0
26 482 0
12 570 0
85 542 0
13 505 0
58 495 0
42 612 0
81 628 0
21 649 0
118 645 0
119 530 0
156 651 0
127 561 0
155 638 0
140 526 0
119 507 0
135 502 0
161 500 0
204 501 0
200 474 0
184 462 0
178 513 0
169 530 0
201 566 0
204 571 0
214 582 0
238 620 0
232 648 0
217 655 0
223 641 0
217 556 0
256 496 0
261 466 0
245 464 0
251 404 0
259 398 0
256 430 0
250 401 0
240 370 0
172 374 0
218 373 0
170 431 0
221 333 0
207 303 0
194 293 0
213 360 0
236 355 0
250 353 0
250 342 0
265 359 0
285 388 0
275 356 0
272 362 0
266 393 0
335 360 0
336 363 0
360 379 0
359 391 0
328 486 0
335 426 0
333 420 0
316 429 0
309 397 0
304 406 0
280 436 0
293 458 0
311 542 0
303 530 0
272 530 0
307 546 0
288 558 0
276 652 0
314 640 0
303 641 0
345 581 0
361 618 0
360 630 0
331 655 0
317 545 0
342 542 0
322 499 0
351 499 0
414 593 0
393 531 0
422 504 0
384 567 0
388 598 0
412 603 0
367 625 0
387 607 0
504 613 0
453 645 0
426 518 0
500 597 0
465 512 0
516 511 0
449 501 0
441 497 0
442 454 0
446 446 0
496 473 0
437 440 0
431 452 0
391 455 0
384 484 0
374 493 0
371 426 0
363 407 0
365 404 0
379 381 0
395 374 0
485 419 0
489 422 0
515 359 0
512 318 0
463 321 0
509 318 0
484 305 0
469 304 0
503 266 0
500 276 0
485 299 0
454 295 0
377 246 0
453 256 0
410 231 0
419 307 0
446 311 0
456 320 0
383 338 0
307 300 0
370 306 0
358 348 0
343 340 0
304 353 0
304 332 0
270 341 0
268 308 0
345 238 0
287 275 0
336 300 0
347 215 0
355 251 0
364 200 0
359 200 0
369 246 0
306 102 0
315 87 0
330 181 0
300 104 0
292 163 0
274 134 0
290 107 0
291 127 0
276 49 0
268 67 0
281 66 0
287 28 0
302 47 0
304 11 0
318 24 0
314 74 0
384 54 0
370 26 0
342 10 0
344 66 0
378 67 0
366 113 0
358 195 0
344 196 0
446 175 0
388 189 0
384 192 0
510 91 0
403 58 0
511 12 0
453 13 0
447 10 0
31 19 0
9 3 0
21 15 0
40 18 0
58 13 0
62 22 0
69 12 0
73 1 0
38 40 0
75 24 0
53 27 0
53 31 0
28 39 0
22 41 0
20 27 0
15 49 0
29 58 0
21 53 0
36 59 0
18 59 0
0 63 0
47 64 0
15 66 0
18 67 0
83 66 0
70 101 0
73 98 0
83 91 0
78 64 0
83 62 0
74 58 0
70 56 0
107 79 0
87 68 0
97 74 0
90 58 0
104 80 0
94 84 0
97 84 0
97 89 0
123 86 0
131 87 0
125 82 0
114 70 0
135 65 0
127 50 0
129 57 0
110 43 0
103 40 0
130 34 0
122 38 0
140 32 0
100 29 0
99 27 0
98 31 0
96 41 0
116 9 0
101 20 0
97 10 0
114 24 0
119 18 0
127 16 0
137 4 0
137 1 0
162 15 0
166 14 0
168 11 0
156 16 0
165 17 0
162 35 0
173 37 0
164 42 0
186 44 0
192 50 0
203 45 0
189 42 0
181 34 0
182 22 0
174 10 0
205 1 0
250 22 0
225 1 0
255 17 0
254 3 0
262 21 0
265 26 0
270 19 0
268 4 0
243 46 0
250 41 0
273 53 0
243 42 0
236 48 0
226 53 0
214 28 0
216 44 0
257 64 0
241 55 0
228 70 0
235 70 0
263 66 0
266 65 0
270 57 0
267 58 0
238 85 0
266 100 0
259 88 0
232 92 0
230 102 0
226 93 0
214 92 0
221 87 0
181 82 0
187 99 0
198 97 0
179 67 0
190 65 0
188 54 0
181 59 0
194 58 0
149 69 0
166 67 0
147 55 0
163 70 0
151 71 0
144 87 0
159 76 0
161 73 0
140 115 0
155 114 0
147 107 0
153 111 0
143 123 0
135 150 0
156 151 0
159 172 0
172 165 0
186 188 0
163 156 0
168 155 0
192 148 0
178 142 0
182 139 0
182 111 0
210 107 0
198 117 0
216 135 0
235 113 0
246 104 0
252 112 0
249 132 0
271 124 0
236 178 0
258 145 0
228 146 0
221 177 0
207 161 0
199 136 0
197 153 0
195 163 0
223 229 0
205 212 0
218 202 0
216 233 0
230 213 0
242 257 0
247 261 0
261 265 0
226 308 0
228 303 0
258 268 0
250 298 0
225 304 0
220 295 0
213 272 0
220 268 0
169 231 0
188 240 0
178 263 0
191 242 0
184 222 0
163 221 0
178 218 0
178 189 0
146 250 0
143 198 0
159 211 0
147 253 0
151 256 0
147 286 0
153 292 0
156 305 0
120 308 0
120 252 0
113 264 0
114 294 0
106 246 0
103 287 0
98 279 0
90 303 0
90 220 0
81 234 0
93 236 0
100 227 0
107 221 0
112 225 0
123 234 0
122 239 0
120 211 0
126 213 0
133 206 0
135 200 0
128 168 0
122 159 0
125 148 0
113 110 0
92 116 0
88 104 0
84 129 0
85 165 0
102 180 0
98 181 0
88 204 0
90 210 0
59 222 0
57 227 0
67 228 0
73 236 0
61 219 0
75 185 0
74 107 0
73 159 0
19 157 0
12 110 0
19 124 0
8 173 0
34 174 0
28 175 0
26 194 0
0 224 0
15 242 0
8 246 0
32 266 0
55 256 0
63 258 0
66 251 0
67 242 0
80 241 0
46 277 0
73 267 0
60 281 0
45 290 0
31 295 0
27 298 0
15 280 0
23 267 0
74 313 0
11 312 0
82 347 0
80 324 0
62 355 0
14 358 0
4 371 0
4 362 0
98 351 0
90 353 0
91 362 0
89 349 0
101 345 0
107 336 0
96 322 0
99 312 0
134 309 0
108 314 0
121 333 0
135 316 0
139 319 0
168 330 0
142 312 0
168 341 0
146 365 0
150 353 0
157 370 0
141 358 0
120 368 0
109 352 0
109 349 0
107 365 0
129 391 0
119 393 0
88 383 0
87 389 0
132 393 0
137 405 0
150 384 0
155 373 0
151 420 0
161 410 0
133 423 0
150 416 0
129 415 0
113 423 0
106 413 0
90 422 0
45 412 0
75 424 0
55 409 0
63 411 0
68 398 0
70 394 0
61 390 0
36 376 0
21 378 0
31 375 0
10 377 0
6 384 0
29 407 0
2 418 0
9 425 0
5 428 0
50 449 0
22 438 0
18 450 0
50 446 0
51 443 0
53 447 0
58 438 0
82 451 0
24 464 0
81 465 0
65 461 0
21 485 0
21 466 0
17 491 0
9 468 0
7 465 0
9 508 0
31 492 0
30 606 0
4 606 0
7 634 0
32 647 0
17 651 0
22 639 0
67 561 0
59 628 0
59 609 0
69 547 0
51 541 0
78 529 0
68 506 0
76 502 0
119 596 0
115 563 0
103 560 0
120 542 0
112 620 0
110 637 0
107 655 0
96 650 0
136 572 0
171 573 0
170 578 0
140 569 0
143 559 0
153 559 0
163 540 0
134 554 0
150 510 0
163 528 0
148 524 0
144 512 0
135 498 0
95 534 0
109 501 0
91 538 0
106 464 0
100 485 0
101 497 0
86 471 0
120 444 0
144 471 0
153 477 0
163 480 0
190 498 0
179 477 0
190 491 0
190 477 0
196 489 0
196 486 0
207 481 0
216 476 0
203 504 0
212 522 0
200 520 0
189 503 0
188 523 0
174 515 0
173 519 0
172 525 0
201 540 0
172 537 0
204 551 0
183 560 0
204 568 0
184 568 0
173 651 0
201 583 0
222 627 0
214 649 0
208 617 0
219 611 0
211 580 0
220 535 0
222 547 0
209 561 0
223 598 0
231 576 0
223 561 0
228 604 0
231 609 0
236 634 0
240 643 0
242 633 0
262 606 0
250 621 0
268 638 0
273 632 0
269 596 0
257 578 0
270 570 0
252 557 0
260 545 0
270 532 0
267 532 0
263 539 0
257 553 0
253 528 0
239 522 0
245 522 0
252 520 0
246 519 0
230 491 0
254 481 0
257 487 0
259 500 0
261 515 0
267 517 0
272 460 0
268 474 0
261 424 0
269 422 0
264 420 0
262 400 0
268 401 0
273 410 0
245 435 0
255 425 0
257 397 0
248 431 0
246 448 0
244 457 0
248 466 0
255 468 0
212 461 0
222 445 0
225 473 0
241 461 0
199 447 0
186 436 0
184 465 0
181 464 0
184 431 0
173 417 0
194 403 0
190 421 0
199 422 0
206 420 0
211 432 0
225 410 0
198 364 0
210 396 0
195 391 0
189 395 0
185 387 0
178 363 0
178 386 0
180 378 0
192 311 0
185 326 0
189 309 0
197 353 0
203 339 0
206 337 0
208 309 0
209 331 0
226 324 0
221 321 0
214 343 0
232 333 0
221 361 0
210 377 0
225 384 0
214 395 0
272 379 0
243 381 0
271 389 0
259 363 0
246 339 0
237 344 0
248 326 0
254 313 0
274 320 0
276 382 0
278 381 0
281 360 0
274 386 0
281 387 0
276 395 0
278 391 0
278 402 0
282 375 0
297 382 0
284 404 0
284 377 0
290 373 0
291 371 0
291 358 0
281 356 0
298 358 0
298 368 0
315 379 0
320 372 0
336 375 0
344 358 0
336 366 0
375 368 0
349 390 0
357 385 0
357 399 0
345 391 0
329 388 0
322 384 0
327 385 0
318 403 0
340 431 0
327 430 0
344 420 0
353 412 0
357 416 0
358 407 0
382 432 0
364 433 0
364 440 0
368 452 0
375 450 0
379 462 0
348 472 0
347 438 0
329 464 0
339 451 0
296 416 0
319 457 0
312 448 0
302 415 0
321 415 0
319 414 0
301 413 0
307 406 0
288 424 0
289 411 0
288 414 0
276 411 0
277 426 0
288 449 0
278 454 0
275 462 0
299 478 0
298 521 0
301 482 0
313 509 0
323 486 0
337 477 0
332 506 0
338 495 0
286 524 0
317 562 0
305 551 0
318 535 0
284 531 0
278 523 0
278 587 0
276 584 0
300 604 0
280 592 0
304 590 0
285 609 0
302 616 0
302 623 0
289 642 0
306 643 0
322 617 0
318 645 0
324 650 0
320 613 0
331 605 0
312 603 0
329 602 0
337 596 0
368 601 0
354 580 0
363 574 0
362 615 0
359 634 0
347 640 0
344 647 0
345 643 0
378 640 0
373 655 0
370 651 0
374 647 0
374 633 0
379 616 0
381 586 0
378 573 0
375 571 0
379 528 0
377 548 0
373 536 0
372 542 0
366 560 0
355 554 0
364 515 0
350 506 0
342 473 0
349 475 0
353 476 0
356 501 0
371 512 0
371 479 0
377 491 0
410 495 0
398 520 0
395 521 0
399 498 0
413 511 0
420 522 0
422 501 0
437 498 0
406 537 0
436 555 0
437 544 0
435 541 0
400 533 0
395 533 0
394 526 0
383 526 0
399 581 0
411 577 0
395 560 0
391 597 0
394 620 0
399 624 0
390 650 0
410 635 0
435 595 0
426 650 0
415 571 0
427 571 0
420 564 0
423 562 0
413 560 0
431 556 0
468 589 0
446 579 0
462 569 0
458 575 0
440 591 0
467 598 0
440 623 0
485 631 0
514 636 0
495 647 0
487 653 0
522 645 0
515 633 0
515 621 0
514 577 0
522 573 0
468 560 0
495 554 0
476 540 0
[...]
CELL_DATA 43244
COLOR_SCALARS ColorSpace 1
0.775163
0.917647
0.917647
0.264052
0.90719
0.0679739
0.775163
0.631373
0.780392
0.917647
0.359477
0.260131
0.101961
0.253595
0.917647
0.784314
0.258824
0.260131
0.918954
0.917647
0.917647
0.917647
0.460131
0.146405
0.91634
0.25098
0.186928
0.917647
0.721569
0.496732
0.532026
0.201307
0.920261
0.745098
0.334641
0.14902
0.90719
0.0888889
0.917647
0.252288
0.0666667
0.137255
0.917647
0.917647
0.91634
0.917647
0.633987
0.135948
0.626144
0.780392
0.101961
0.917647
0.781699
0.91634
0.0627451
0.921569
0.917647
0.918954
0.0823529
0.917647
0.269281
0.271895
0.27451
0.917647
0.917647
0.917647
0.917647
0.266667
0.269281
0.267974
0.508497
0.257516
0.275817
0.193464
0.917647
0.270588
0.891503
0.875817
0.45098
0.386928
0.917647
0.917647
0.185621
0.14902
0.917647
0.908497
0.917647
0.416993
0.917647
0.244444
0.917647
0.160784
0.917647
0.522876
0.203922
0.130719
0.780392
0.877124
0.862745
0.20915
0.30719
0.133333
0.25098
0.542484
0.628758
0.0705882
0.917647
0.194771
0.138562
0.172549
0.917647
0.223529
0.657516
0.866667
0.0718954
0.0679739
0.630065
0.917647
0.262745
0.0627451
0.917647
0.917647
0.917647
0.258824
0.0627451
0.873203
0.701961
0.194771
0.210458
0.264052
0.258824
0.780392
0.918954
0.410458
0.261438
0.780392
0.717647
0.372549
0.671895
0.122876
0.762092
0.481046
0.224837
0.254902
0.917647
0.627451
0.917647
0.262745
0.11634
0.236601
0.917647
0.0823529
0.362092
0.917647
0.917647
0.917647
0.917647
0.218301
0.917647
0.917647
0.122876
0.917647
0.908497
0.0653595
0.266667
0.681046
0.265359
0.265359
0.0823529
0.258824
0.403922
0.917647
0.917647
0.917647
0.917647
0.909804
0.64183
0.11634
0.91634
0.258824
0.258824
0.350327
0.452288
0.258824
0.253595
0.639216
0.342484
0.196078
0.0653595
0.351634
0.900654
0.91634
0.900654
0.34902
0.396078
0.343791
0.27451
0.0627451
0.173856
0.360784
0.0705882
0.917647
0.0627451
0.909804
0.616993
0.917647
0.917647
0.0627451
0.346405
0.917647
0.631373
0.347712
0.0627451
0.915033
0.0627451
0.610458
0.243137
0.247059
0.0993464
0.184314
0.0627451
0.900654
0.619608
0.0627451
0.235294
0.917647
0.258824
0.921569
0.262745
0.879739
0.65098
0.45098
0.735948
0.780392
0.917647
0.124183
0.777778
0.917647
0.454902
0.780392
0.687582
0.277124
0.258824
0.462745
0.780392
0.267974
0.258824
0.780392
0.657516
0.91634
0.909804
0.206536
0.260131
0.917647
0.261438
0.891503
0.917647
0.918954
0.917647
0.917647
0.260131
0.917647
0.2
0.917647
0.211765
0.900654
0.151634
0.917647
0.260131
0.270588
0.264052
0.917647
0.917647
0.917647
0.917647
0.917647
0.917647
0.917647
0.917647
0.917647
0.91634
0.917647
0.91634
0.917647
0.917647
0.197386
0.265359
0.912418
0.91634
0.905882
0.917647
0.917647
0.917647
0.282353
0.780392
0.917647
0.172549
0.267974
0.168627
0.76732
0.243137
0.172549
0.243137
0.884967
0.265359
0.780392
0.257516
0.420915
0.27451
0.918954
0.254902
0.227451
0.918954
0.917647
0.917647
0.917647
0.266667
0.917647
0.917647
0.917647
0.917647
0.917647
0.917647
0.917647
0.917647
0.917647
0.917647
0.917647
0.917647
0.917647
0.917647
0.917647
0.917647
0.917647
0.917647
0.917647
0.917647
0.636601
0.917647
0.917647
0.413072
0.917647
0.780392
0.262745
0.905882
0.684967
0.780392
0.270588
0.267974
0.779085
0.214379
0.231373
0.267974
0.775163
0.258824
0.260131
0.254902
0.269281
0.240523
0.415686
0.917647
0.352941
0.613072
0.917647
0.917647
0.917647
0.899346
0.917647
0.917647
0.917647
0.917647
0.917647
0.130719
0.188235
0.746405
0.205229
0.807843
0.069281
0.104575
0.130719
0.141176
0.145098
0.602614
0.183007
0.494118
0.216993
0.688889
0.448366
0.415686
0.860131
0.164706
0.145098
0.0941176
0.166013
0.258824
0.780392
0.215686
0.211765
0.25098
0.780392
0.261438
0.537255
0.673203
0.171242
0.261438
0.554248
0.252288
0.248366
0.44183
0.224837
0.780392
0.141176
0.253595
0.596078
0.19085
0.396078
0.869281
0.362092
0.240523
0.304575
0.754248
0.141176
0.124183
0.173856
0.202614
0.823529
0.397386
0.860131
0.54902
0.779085
0.803922
0.261438
0.151634
0.75817
0.877124
0.820915
0.415686
0.431373
0.807843
0.338562
0.389542
0.142484
0.780392
0.614379
0.32549
0.0627451
0.19085
0.0640523
0.213072
0.264052
0.0653595
0.0666667
0.0627451
0.0627451
0.918954
0.917647
0.347712
0.917647
0.915033
0.264052
0.0718954
0.176471
0.69281
0.917647
0.917647
0.069281
0.252288
0.216993
0.253595
0.867974
0.764706
0.0810458
0.684967
0.917647
0.917647
0.904575
0.069281
0.2
0.0627451
0.270588
0.196078
0.913725
0.270588
0.917647
0.912418
0.60915
0.917647
0.917647
0.143791
0.917647
0.917647
0.917647
0.917647
0.917647
0.269281
0.917647
0.917647
0.917647
0.275817
0.917647
0.196078
0.917647
0.24183
0.917647
0.201307
0.917647
0.917647
0.901961
0.206536
0.917647
0.684967
0.443137
0.708497
0.334641
0.614379
0.713725
0.266667
0.656209
0.179085
0.0627451
0.682353
0.44183
0.594771
0.122876
0.862745
0.321569
0.137255
0.720261
0.247059
0.724183
0.912418
0.917647
0.912418
0.917647
0.917647
0.913725
0.25098
0.213072
0.355556
0.635294
0.121569
0.130719
0.256209
0.256209
0.917647
0.917647
0.207843
0.624837
0.637908
0.917647
0.24183
0.264052
0.917647
0.330719
0.917647
0.917647
0.610458
0.917647
0.917647
0.235294
0.150327
0.45098
0.254902
0.202614
0.396078
0.779085
0.401307
0.684967
0.256209
0.168627
0.211765
0.261438
0.363399
0.669281
0.202614
0.611765
0.862745
0.780392
0.452288
0.780392
0.271895
0.780392
0.779085
0.718954
0.666667
0.780392
0.784314
0.223529
0.175163
0.917647
0.917647
0.686275
0.691503
0.918954
0.917647
0.780392
0.917647
0.619608
0.176471
0.222222
0.175163
0.917647
0.128105
0.91634
0.256209
0.350327
0.201307
0.708497
0.214379
0.113725
0.718954
0.227451
0.154248
0.176471
0.256209
0.257516
0.0627451
0.626144
0.236601
0.206536
0.888889
0.917647
0.915033
0.0666667
0.637908
0.917647
0.917647
0.917647
0.915033
0.343791
0.262745
0.0849673
0.243137
0.24183
0.243137
0.917647
0.917647
0.244444
0.179085
0.448366
0.660131
0.666667
0.917647
0.917647
0.917647
0.917647
0.614379
0.917647
0.917647
0.917647
0.917647
0.917647
0.917647
0.917647
0.917647
0.27451
0.917647
0.917647
0.350327
0.207843
0.253595
0.917647
0.168627
0.236601
0.915033
0.267974
0.264052
0.126797
0.197386
0.622222
0.156863
0.262745
0.901961
0.34902
0.900654
0.266667
0.181699
0.264052
0.0732026
0.260131
0.270588
0.265359
0.14902
0.214379
0.273203
0.266667
0.262745
0.917647
0.188235
0.909804
0.911111
0.912418
0.273203
0.917647
0.264052
0.900654
0.271895
0.915033
0.917647
0.172549
0.91634
0.273203
0.917647
0.917647
0.91634
0.917647
0.917647
0.384314
0.917647
0.388235
0.917647
0.917647
0.667974
0.917647
0.917647
0.917647
0.911111
0.682353
0.917647
0.269281
0.917647
0.918954
0.913725
0.23268
0.912418
0.909804
0.89281
0.267974
0.24183
0.230065
0.354248
0.172549
0.402614
0.917647
0.611765
0.185621
0.168627
0.726797
0.380392
0.260131
0.267974
0.228758
0.261438
0.411765
0.917647
0.662745
0.260131
0.235294
0.913725
0.901961
0.260131
0.619608
0.920261
0.917647
0.921569
0.261438
0.356863
0.904575
0.619608
0.24183
0.0627451
0.852288
0.627451
0.920261
0.917647
0.917647
0.635294
0.258824
0.257516
0.258824
0.917647
0.917647
0.0627451
0.0653595
0.0627451
0.397386
0.921569
0.0771242
0.34902
0.0653595
0.0745098
0.0627451
0.917647
0.63268
0.917647
0.917647
0.635294
0.917647
0.917647
0.917647
0.917647
0.91634
0.90719
0.912418
0.0679739
0.0745098
0.0836601
0.351634
0.619608
0.921569
0.0679739
0.0627451
0.0627451
0.198693
0.0627451
0.0627451
0.917647
0.0627451
0.0627451
0.0784314
0.0627451
0.917647
0.332026
0.917647
0.917647
0.917647
0.917647
0.0679739
0.917647
0.347712
0.917647
0.917647
0.917647
0.917647
0.917647
0.918954
0.905882
0.917647
0.917647
0.917647
0.917647
0.0627451
0.0627451
0.0627451
0.0627451
0.90719
0.917647
0.0627451
0.917647
0.0627451
0.0627451
0.0627451
0.0705882
0.0797386
0.0627451
0.0627451
0.0627451
0.597386
0.0627451
0.0627451
0.0627451
0.0627451
0.633987
0.0627451
0.917647
0.912418
0.898039
0.921569
0.894118
0.920261
0.90719
0.921569
0.912418
0.0627451
0.326797
0.0705882
0.0627451
0.0627451
0.0627451
0.918954
0.109804
0.917647
0.917647
0.603922
0.917647
0.917647
0.0627451
0.890196
0.0627451
0.905882
0.890196
0.141176
0.635294
0.917647
0.0627451
0.215686
0.913725
0.0797386
0.108497
0.0679739
0.628758
0.252288
0.601307
0.069281
0.0705882
0.261438
0.257516
0.215686
0.100654
0.265359
0.262745
0.258824
0.247059
0.269281
0.262745
0.203922
0.269281
0.266667
0.270588
0.267974
0.248366
0.266667
0.20915
0.256209
0.206536
0.253595
0.257516
0.258824
0.146405
0.258824
0.253595
0.258824
0.27451
0.262745
0.252288
0.269281
0.230065
0.684967
0.266667
0.762092
0.206536
0.260131
0.267974
0.258824
0.258824
0.207843
0.667974
0.223529
0.256209
0.23268
0.426144
0.150327
0.214379
0.917647
0.894118
0.917647
0.239216
0.688889
0.917647
0.898039
0.917647
0.917647
0.917647
0.917647
0.704575
0.715033
0.918954
0.147712
0.917647
0.746405
0.705882
0.115033
0.675817
0.720261
0.169935
0.780392
0.262745
0.712418
0.227451
0.363399
0.687582
0.711111
0.713725
0.696732
0.715033
0.780392
0.793464
0.780392
0.771242
0.780392
0.780392
0.780392
0.32549
0.780392
0.780392
0.780392
0.780392
0.780392
0.780392
0.780392
0.780392
0.25098
0.43268
0.201307
0.771242
0.780392
0.780392
0.269281
0.780392
0.20915
0.780392
0.175163
0.780392
0.52549
0.780392
0.780392
0.780392
0.262745
0.52549
0.781699
0.780392
0.389542
0.266667
0.780392
0.261438
0.266667
0.771242
0.262745
0.918954
0.267974
0.505882
0.518954
0.262745
0.917647
0.917647
0.918954
0.264052
0.91634
0.231373
0.917647
0.917647
0.639216
0.640523
0.264052
0.917647
0.230065
0.169935
0.163399
0.908497
0.905882
0.261438
0.909804
0.917647
0.917647
0.90719
0.917647
0.654902
0.881046
0.137255
0.917647
0.917647
0.917647
0.917647
0.917647
0.917647
0.64183
0.197386
0.239216
0.917647
0.267974
0.899346
0.244444
0.43268
0.129412
0.233987
0.630065
0.891503
0.917647
0.918954
0.917647
0.917647
0.352941
0.913725
0.917647
0.426144
0.244444
0.273203
0.453595
0.247059
0.254902
0.373856
0.257516
0.19085
0.639216
0.258824
0.224837
0.264052
0.917647
0.223529
0.861438
0.917647
0.917647
0.917647
0.917647
0.917647
0.151634
0.917647
0.264052
0.917647
0.917647
0.267974
0.193464
0.35817
0.894118
0.917647
0.917647
0.917647
0.917647
0.917647
0.88366
0.917647
0.917647
0.917647
0.917647
0.63268
0.917647
0.917647
0.917647
0.917647
0.917647
0.917647
0.917647
0.917647
0.917647
0.917647
0.917647
0.917647
0.917647
0.917647
0.917647
0.917647
0.917647
0.917647
0.917647
0.917647
0.917647
0.917647
0.917647
0.917647
0.917647
0.917647
0.262745
0.917647
0.422222
0.909804
0.917647
0.616993
0.911111
0.622222
0.899346
0.917647
0.918954
0.458824
0.917647
0.917647
0.265359
0.917647
0.917647
0.917647
0.917647
0.917647
0.917647
0.917647
0.917647
0.917647
0.917647
0.917647
0.917647
0.917647
0.917647
0.917647
0.648366
0.917647
0.917647
0.917647
0.917647
0.917647
0.917647
0.917647
0.917647
0.917647
0.917647
0.257516
0.262745
0.439216
0.265359
0.490196
0.262745
0.628758
0.180392
0.257516
0.271895
0.375163
0.373856
0.917647
0.915033
0.917647
0.917647
0.139869
0.198693
0.917647
0.917647
0.194771
0.260131
0.179085
0.267974
0.192157
0.27451
0.23268
0.780392
0.160784
0.218301
0.176471
0.27451
0.194771
0.266667
0.278431
0.257516
0.185621
0.262745
0.172549
0.207843
0.270588
0.264052
0.233987
0.233987
0.260131
0.253595
0.156863
0.260131
0.917647
0.917647
0.418301
0.261438
0.227451
0.273203
0.269281
0.271895
0.267974
0.266667
0.262745
0.196078
0.261438
0.262745
0.253595
0.215686
0.258824
0.258824
0.132026
0.265359
0.237908
0.257516
0.258824
0.258824
0.269281
0.631373
0.262745
0.911111
0.917647
0.363399
0.193464
0.624837
0.264052
0.917647
0.262745
0.36732
0.253595
0.917647
0.261438
0.265359
0.258824
0.920261
0.454902
0.256209
0.917647
0.882353
0.917647
0.917647
0.917647
0.917647
0.917647
0.917647
0.917647
0.917647
0.917647
0.918954
0.917647
0.917647
0.918954
0.917647
0.917647
0.917647
0.917647
0.269281
0.917647
0.917647
0.917647
0.917647
0.671895
0.917647
0.917647
0.27451
0.258824
0.269281
0.185621
0.269281
0.271895
0.270588
0.219608
0.40915
0.248366
0.224837
0.917647
0.393464
0.261438
0.917647
0.917647
0.917647
0.917647
0.917647
0.917647
0.917647
0.917647
0.917647
0.917647
0.917647
0.917647
0.917647
0.917647
0.917647
0.917647
0.917647
0.917647
0.917647
0.917647
0.917647
0.917647
0.917647
0.917647
0.917647
0.917647
0.917647
0.917647
0.917647
0.917647
0.917647
0.917647
0.917647
0.917647
0.917647
0.917647
0.739869
0.917647
0.918954
0.917647
0.917647
0.917647
0.917647
0.917647
0.917647
0.917647
0.917647
0.909804
0.917647
0.917647
0.917647
0.917647
0.917647
0.917647
0.917647
0.917647
0.917647
0.422222
0.917647
0.917647
0.917647
0.917647
0.917647
0.917647
0.917647
0.917647
0.917647
0.917647
0.254902
0.917647
0.917647
0.895425
0.267974
0.267974
0.265359
0.267974
0.891503
0.482353
0.918954
0.27451
0.27451
0.359477
0.917647
0.917647
0.908497
0.256209
0.917647
0.917647
0.262745
0.271895
0.724183
0.207843
0.917647
0.917647
0.917647
0.917647
0.237908
0.264052
0.264052
0.270588
0.257516
0.269281
0.261438
0.267974
0.213072
0.264052
0.666667
0.261438
0.730719
0.746405
0.47451
0.660131
0.252288
0.71634
0.76732
0.777778
0.780392
0.776471
0.780392
0.526797
0.759477
0.15817
0.777778
0.394771
0.262745
0.535948
0.267974
0.270588
0.269281
0.269281
0.269281
0.258824
0.269281
0.270588
0.265359
0.270588
0.342484
0.264052
0.262745
0.917647
0.418301
0.0875817
0.917647
0.917647
0.213072
0.253595
0.917647
0.877124
0.917647
0.917647
0.917647
0.917647
0.917647
0.917647
0.917647
0.917647
0.917647
0.887582
0.917647
0.917647
0.905882
0.640523
0.542484
0.20915
0.183007
0.194771
0.160784
0.23268
0.273203
0.917647
0.117647
0.881046
0.261438
0.173856
0.679739
0.917647
0.911111
0.247059
0.917647
0.917647
0.917647
0.918954
0.917647
0.236601
0.917647
0.260131
0.904575
0.917647
0.890196
0.180392
0.639216
0.891503
0.254902
0.457516
0.267974
0.244444
0.172549
0.124183
0.366013
0.265359
0.273203
0.201307
0.346405
0.252288
0.197386
0.197386
0.271895
0.154248
0.267974
0.275817
0.228758
0.254902
0.779085
0.266667
0.500654
0.262745
0.31634
0.780392
0.8
0.776471
0.780392
0.0784314
0.430065
0.79085
0.260131
0.320261
0.433987
0.728105
0.737255
0.301961
0.19085
0.206536
0.776471
0.780392
0.776471
0.709804
0.0954248
0.11634
0.287582
0.835294
0.14902
0.571242
0.16732
0.112418
0.342484
0.146405
0.322876
0.746405
0.466667
0.780392
0.816993
0.171242
0.39085
0.171242
0.780392
0.807843
0.771242
0.875817
0.768627
0.780392
0.346405
0.258824
0.607843
0.781699
0.512418
0.780392
0.381699
0.780392
0.779085
0.780392
0.135948
0.681046
0.780392
0.784314
0.780392
0.252288
0.258824
0.780392
0.530719
0.258824
0.780392
0.708497
0.730719
0.71634
0.0797386
0.780392
0.780392
0.780392
0.712418
0.781699
0.134641
0.785621
0.478431
0.780392
0.0901961
0.184314
0.30719
0.218301
0.69281
0.230065
0.216993
0.281046
0.155556
0.68366
0.68366
0.737255
0.652288
0.270588
0.682353
0.741176
0.688889
0.163399
0.8
0.186928
0.147712
0.192157
0.121569
0.780392
0.264052
0.258824
0.261438
0.271895
0.168627
0.273203
0.509804
0.788235
0.270588
0.267974
0.256209
0.215686
0.177778
0.354248
0.23268
0.35817
0.254902
0.211765
0.278431
0.206536
0.270588
0.260131
0.0745098
0.700654
0.622222
0.124183
0.40915
0.598693
0.0732026
0.533333
0.424837
0.138562
0.278431
0.171242
0.754248
0.27451
0.160784
0.764706
0.247059
0.746405
0.652288
0.376471
0.541176
0.682353
0.669281
0.207843
0.662745
0.440523
0.372549
0.487582
0.330719
0.239216
0.180392
0.322876
0.172549
0.699346
0.512418
0.296732
0.152941
0.785621
0.756863
0.256209
0.854902
0.172549
0.150327
0.853595
0.270588
0.865359
0.405229
0.499346
0.237908
0.346405
0.30719
0.332026
0.735948
0.752941
0.447059
0.379085
0.847059
0.860131
0.113725
0.192157
0.121569
0.423529
0.252288
0.505882
0.256209
0.88366
0.256209
0.150327
0.2
0.244444
0.228758
0.108497
0.265359
0.23268
0.860131
0.788235
0.0993464
0.145098
0.152941
0.100654
0.12549
0.146405
0.216993
0.19085
0.151634
0.338562
0.652288
0.226144
0.715033
0.261438
0.866667
0.10719
0.860131
0.27451
0.579085
0.687582
0.862745
0.845752
0.682353
0.721569
0.607843
0.231373
0.397386
0.60915
0.385621
0.682353
0.71634
0.877124
0.687582
0.624837
0.20915
0.0745098
0.664052
0.154248
0.589542
0.278431
0.0627451
0.726797
0.121569
0.818301
0.0666667
0.465359
0.780392
0.440523
0.383007
0.535948
0.109804
0.877124
0.452288
0.606536
0.141176
0.801307
0.113725
0.789542
0.754248
0.762092
0.159477
0.139869
0.132026
0.145098
0.803922
0.864052
0.664052
0.822222
0.780392
0.14902
0.788235
0.780392
0.762092
0.622222
0.0797386
0.866667
0.861438
0.833987
0.564706
0.792157
0.0810458
0.866667
0.588235
0.471895
0.751634
0.637908
0.139869
0.261438
0.0627451
0.603922
0.0627451
0.87451
0.273203
0.258824
0.0627451
0.0666667
0.176471
0.0627451
0.475817
0.0705882
0.768627
0.0627451
0.252288
0.603922
0.257516
0.273203
0.14902
0.206536
0.183007
0.223529
0.253595
0.278431
0.888889
0.384314
0.890196
0.201307
0.626144
0.620915
0.917647
0.917647
0.917647
0.917647
0.917647
0.461438
0.917647
0.911111
0.917647
0.895425
0.271895
0.258824
0.260131
0.267974
0.256209
0.266667
0.154248
0.27451
0.265359
0.271895
0.273203
0.218301
0.270588
0.201307
0.185621
0.912418
0.478431
0.900654
0.917647
0.917647
0.917647
0.91634
0.917647
0.917647
0.917647
0.917647
0.917647
0.917647
0.91634
0.917647
0.917647
0.917647
0.89281
0.637908
0.366013
0.192157
0.27451
0.24183
0.260131
0.254902
0.258824
0.633987
0.228758
0.253595
0.19085
0.189542
0.154248
0.265359
0.247059
0.205229
0.264052
0.269281
0.252288
0.0679739
0.253595
0.0666667
0.0627451
0.32549
0.0627451
0.0653595
0.0666667
0.138562
0.888889
0.64183
0.0627451
0.0653595
0.254902
0.220915
0.85098
0.866667
0.244444
0.207843
0.152941
0.261438
0.128105
0.211765
0.257516
0.0705882
0.249673
0.137255
0.624837
0.921569
0.197386
0.141176
0.265359
0.137255
0.917647
0.290196
0.273203
0.917647
0.913725
0.917647
0.620915
0.917647
0.386928
0.273203
0.265359
0.186928
0.254902
0.257516
0.160784
0.201307
0.227451
0.915033
0.402614
0.917647
0.917647
0.176471
0.917647
0.290196
0.917647
0.917647
0.913725
0.917647
0.917647
0.917647
0.917647
0.917647
0.917647
0.917647
0.917647
0.917647
0.917647
0.908497
0.917647
0.917647
0.917647
0.91634
0.366013
0.900654
0.915033
0.918954
0.262745
0.205229
0.270588
0.917647
0.917647
0.405229
0.917647
0.917647
0.352941
0.917647
0.917647
0.917647
0.917647
0.917647
0.917647
0.917647
0.917647
0.917647
0.917647
0.917647
0.917647
0.917647
0.917647
0.917647
0.917647
0.917647
0.917647
0.917647
0.917647
0.917647
0.917647
0.917647
0.917647
0.917647
0.917647
0.917647
0.917647
0.917647
0.917647
0.917647
0.917647
0.917647
0.917647
0.15817
0.917647
0.90719
0.917647
0.917647
0.917647
0.917647
0.917647
0.917647
0.917647
0.917647
0.389542
0.917647
0.917647
0.917647
0.635294
0.917647
0.917647
0.917647
0.917647
0.917647
0.917647
0.917647
0.917647
0.917647
0.917647
0.917647
0.917647
0.626144
0.917647
0.917647
0.917647
0.917647
0.917647
0.917647
0.192157
0.236601
0.14902
0.239216
0.665359
0.207843
0.619608
0.917647
0.19085
0.917647
0.220915
0.416993
0.52549
0.122876
0.214379
0.244444
0.498039
0.261438
0.218301
0.172549
0.2
0.138562
0.675817
0.207843
0.226144
0.373856
0.569935
0.628758
0.345098
0.364706
0.137255
0.0901961
0.691503
0.701961
0.701961
0.660131
0.644444
0.552941
0.722876
0.70719
0.677124
0.471895
0.303268
0.711111
0.598693
0.711111
0.380392
0.68366
0.166013
0.691503
0.709804
0.141176
0.230065
0.649673
0.257516
0.72549
0.705882
0.700654
0.722876
0.456209
0.717647
0.708497
0.696732
0.729412
0.75817
0.39085
0.911111
0.711111
0.227451
0.273203
0.25098
0.203922
0.681046
0.709804
0.184314
0.695425
0.637908
0.665359
0.905882
0.362092
0.142484
0.237908
0.373856
0.258824
0.25098
0.258824
0.197386
0.20915
0.389542
0.226144
0.258824
0.256209
0.118954
0.533333
0.247059
0.631373
0.917647
0.917647
0.917647
0.917647
0.917647
0.917647
0.917647
0.917647
0.911111
0.917647
0.239216
0.413072
0.258824
0.917647
0.258824
0.917647
0.355556
0.420915
0.130719
0.231373
0.211765
0.218301
0.219608
0.223529
0.363399
0.196078
0.2
0.24183
0.918954
0.362092
0.237908
0.917647
0.180392
0.903268
0.175163
0.917647
0.878431
0.364706
0.346405
0.258824
0.356863
0.258824
0.905882
0.258824
0.917647
0.917647
0.917647
0.917647
0.920261
0.254902
0.133333
0.143791
0.247059
0.917647
0.917647
0.918954
0.24183
0.917647
0.917647