# vtk DataFile Version 1.0
Unstructured Grid Example
ASCII

DATASET UNSTRUCTURED_GRID
POINTS 6877 float
255 373 0
356 415 0
362 417 0
395 462 0
385 93 0
423 1 0
138 32 0
182 13 0
264 316 0
196 42 0
147 271 0
144 327 0
93 331 0
232 581 0
208 482 0
176 374 0
282 446 0
267 449 0
373 619 0
286 542 0
316 401 0
428 350 0
417 350 0
307 327 0
357 238 0
433 86 0
4 42 0
9 73 0
118 30 0
30 14 0
19 10 0
162 48 0
164 1 0
280 67 0
183 51 0
179 61 0
188 76 0
274 83 0
189 115 0
166 191 0
159 192 0
142 129 0
124 115 0
112 91 0
63 115 0
68 273 0
87 280 0
168 355 0
214 377 0
105 424 0
37 438 0
44 503 0
19 650 0
232 524 0
152 521 0
206 493 0
237 459 0
232 591 0
263 612 0
268 605 0
243 517 0
266 427 0
252 447 0
254 360 0
274 400 0
275 360 0
306 420 0
362 409 0
353 449 0
347 422 0
296 498 0
289 599 0
293 655 0
339 543 0
335 517 0
330 499 0
370 623 0
366 655 0
522 637 0
391 628 0
428 562 0
412 542 0
377 522 0
382 411 0
383 463 0
423 506 0
491 387 0
474 338 0
381 260 0
433 301 0
420 321 0
352 391 0
300 333 0
317 310 0
350 199 0
372 328 0
294 169 0
281 133 0
304 112 0
331 1 0
372 24 0
405 57 0
383 63 0
405 77 0
413 19 0
508 17 0
412 9 0
3 1 0
57 10 0
82 14 0
72 19 0
71 10 0
58 25 0
3 47 0
74 90 0
74 69 0
90 67 0
93 79 0
100 86 0
112 77 0
117 43 0
123 37 0
144 37 0
107 29 0
97 10 0
110 1 0
152 22 0
166 34 0
167 41 0
170 33 0
173 17 0
172 11 0
203 6 0
225 19 0
264 23 0
203 27 0
181 28 0
252 46 0
274 61 0
255 72 0
210 92 0
188 65 0
179 89 0
176 79 0
172 50 0
156 66 0
161 81 0
213 116 0
215 123 0
227 217 0
243 206 0
253 129 0
267 104 0
276 94 0
277 138 0
264 144 0
263 114 0
265 294 0
269 282 0
272 352 0
270 356 0
266 326 0
257 299 0
253 258 0
231 334 0
244 348 0
236 357 0
124 320 0
111 341 0
171 316 0
172 226 0
182 286 0
181 221 0
173 104 0
104 132 0
127 133 0
166 215 0
98 195 0
86 95 0
0 94 0
0 149 0
76 195 0
59 219 0
78 234 0
94 254 0
73 260 0
43 291 0
0 362 0
71 365 0
117 375 0
107 373 0
110 363 0
121 375 0
186 374 0
195 384 0
154 380 0
132 382 0
127 395 0
174 388 0
161 417 0
149 400 0
107 400 0
70 406 0
89 400 0
56 393 0
39 405 0
29 406 0
35 417 0
57 420 0
116 428 0
52 424 0
23 429 0
30 435 0
15 655 0
38 644 0
83 532 0
93 469 0
152 541 0
187 544 0
205 643 0
196 564 0
193 548 0
207 539 0
141 500 0
161 463 0
204 478 0
204 435 0
217 491 0
222 494 0
223 509 0
211 591 0
208 530 0
220 610 0
224 617 0
253 633 0
231 619 0
241 618 0
255 607 0
259 638 0
261 650 0
263 635 0
265 608 0
272 560 0
270 538 0
266 521 0
269 490 0
270 524 0
264 474 0
258 422 0
252 434 0
250 445 0
249 485 0
231 468 0
228 482 0
228 452 0
239 463 0
246 422 0
242 386 0
242 415 0
211 385 0
233 372 0
248 382 0
253 363 0
271 410 0
255 414 0
276 419 0
271 396 0
278 372 0
292 377 0
290 419 0
304 394 0
317 381 0
312 378 0
359 388 0
370 387 0
354 417 0
340 389 0
340 418 0
330 424 0
339 422 0
368 463 0
363 441 0
360 463 0
324 475 0
317 429 0
314 440 0
312 446 0
316 473 0
295 484 0
311 476 0
300 547 0
288 547 0
283 512 0
295 580 0
282 611 0
308 629 0
308 620 0
298 609 0
326 502 0
344 655 0
372 655 0
367 643 0
373 543 0
364 499 0
316 501 0
343 484 0
361 496 0
361 485 0
394 485 0
406 545 0
406 565 0
383 558 0
379 564 0
385 591 0
379 647 0
396 655 0
408 641 0
388 571 0
425 576 0
417 624 0
491 634 0
522 627 0
485 586 0
418 571 0
415 546 0
441 541 0
493 515 0
506 545 0
460 472 0
522 461 0
419 452 0
411 470 0
432 480 0
393 469 0
374 482 0
387 450 0
397 466 0
404 452 0
383 428 0
382 450 0
394 378 0
398 370 0
435 426 0
443 415 0
436 443 0
522 437 0
444 430 0
501 393 0
507 365 0
504 369 0
457 333 0
503 323 0
520 337 0
516 317 0
517 299 0
512 310 0
458 312 0
447 315 0
431 293 0
424 265 0
403 266 0
402 273 0
383 273 0
427 295 0
444 312 0
434 367 0
420 356 0
416 364 0
378 360 0
381 353 0
337 348 0
321 357 0
315 364 0
302 366 0
283 369 0
279 360 0
295 363 0
312 362 0
311 320 0
281 336 0
281 305 0
284 314 0
292 319 0
342 278 0
347 334 0
371 320 0
355 299 0
361 275 0
337 184 0
334 132 0
325 173 0
310 183 0
331 229 0
308 179 0
304 181 0
284 153 0
293 108 0
298 163 0
302 107 0
283 99 0
290 10 0
295 51 0
320 59 0
327 31 0
327 44 0
331 71 0
328 52 0
338 1 0
361 28 0
364 7 0
352 42 0
347 54 0
339 56 0
343 139 0
344 220 0
365 220 0
354 191 0
352 143 0
370 224 0
367 251 0
395 256 0
522 155 0
433 45 0
449 31 0
395 35 0
366 36 0
403 24 0
431 9 0
522 12 0
8 3 0
6 6 0
16 5 0
36 5 0
31 4 0
40 1 0
60 1 0
99 6 0
96 4 0
66 6 0
60 7 0
84 10 0
64 19 0
59 13 0
42 21 0
12 15 0
42 8 0
0 9 0
5 10 0
2 18 0
47 27 0
53 36 0
24 45 0
16 49 0
0 44 0
4 52 0
40 61 0
60 72 0
50 71 0
53 62 0
76 46 0
75 55 0
88 75 0
84 46 0
92 45 0
94 36 0
77 33 0
85 31 0
93 32 0
93 22 0
111 33 0
118 34 0
107 50 0
106 44 0
99 46 0
108 61 0
100 67 0
114 74 0
118 67 0
113 53 0
126 65 0
121 78 0
128 74 0
128 58 0
142 58 0
141 54 0
127 53 0
118 37 0
123 41 0
133 48 0
141 30 0
139 20 0
131 14 0
127 20 0
135 30 0
126 29 0
106 25 0
100 25 0
101 14 0
102 22 0
119 9 0
101 11 0
102 4 0
106 4 0
108 6 0
122 11 0
127 12 0
132 10 0
136 8 0
131 1 0
145 6 0
157 22 0
175 34 0
173 30 0
167 24 0
148 42 0
157 44 0
167 49 0
176 41 0
173 39 0
180 45 0
184 48 0
192 46 0
204 45 0
199 45 0
197 27 0
189 36 0
179 8 0
192 18 0
209 25 0
230 1 0
226 26 0
244 25 0
249 22 0
241 19 0
268 10 0
283 10 0
283 27 0
268 17 0
257 13 0
255 29 0
257 43 0
282 43 0
273 48 0
269 49 0
248 40 0
252 35 0
219 38 0
220 45 0
230 50 0
205 58 0
206 62 0
250 64 0
209 60 0
212 53 0
253 55 0
277 55 0
271 70 0
265 63 0
260 69 0
268 72 0
281 72 0
278 80 0
277 76 0
275 73 0
265 82 0
218 74 0
207 71 0
212 72 0
208 81 0
194 81 0
189 69 0
192 66 0
193 69 0
199 65 0
202 64 0
196 56 0
191 54 0
186 54 0
192 60 0
174 62 0
173 56 0
149 52 0
153 54 0
166 59 0
145 68 0
165 68 0
167 63 0
183 80 0
161 76 0
148 81 0
168 91 0
181 84 0
183 101 0
175 100 0
167 103 0
167 108 0
168 131 0
193 133 0
169 121 0
191 110 0
226 130 0
198 142 0
236 141 0
239 136 0
227 135 0
228 114 0
223 111 0
200 104 0
224 96 0
238 102 0
246 84 0
242 88 0
263 94 0
257 92 0
255 87 0
280 83 0
280 89 0
277 98 0
273 98 0
265 98 0
268 118 0
283 121 0
284 157 0
276 149 0
268 137 0
258 132 0
252 106 0
249 113 0
242 130 0
247 155 0
244 287 0
247 308 0
262 226 0
263 189 0
265 171 0
278 159 0
280 170 0
276 303 0
274 316 0
267 269 0
269 321 0
271 318 0
284 324 0
279 324 0
270 329 0
258 319 0
266 319 0
251 320 0
246 320 0
242 326 0
229 329 0
224 332 0
202 264 0
215 283 0
236 318 0
210 221 0
227 171 0
201 211 0
202 250 0
193 258 0
182 195 0
183 183 0
175 188 0
155 233 0
160 239 0
155 276 0
171 239 0
190 289 0
188 331 0
186 323 0
144 296 0
152 250 0
135 256 0
136 270 0
142 312 0
108 326 0
103 330 0
101 266 0
105 316 0
126 304 0
135 247 0
108 226 0
101 212 0
108 203 0
134 215 0
138 207 0
143 211 0
153 242 0
150 221 0
150 213 0
149 202 0
135 200 0
127 164 0
144 182 0
149 191 0
148 111 0
152 103 0
122 95 0
134 111 0
132 121 0
111 106 0
112 82 0
102 89 0
98 89 0
99 105 0
119 145 0
120 106 0
121 197 0
110 160 0
103 199 0
96 229 0
90 223 0
89 213 0
89 207 0
97 219 0
96 92 0
97 82 0
91 87 0
91 98 0
93 206 0
50 143 0
81 85 0
9 85 0
47 108 0
22 112 0
65 196 0
78 188 0
85 203 0
48 204 0
22 213 0
43 263 0
49 264 0
57 258 0
66 248 0
72 247 0
89 242 0
95 249 0
83 263 0
80 255 0
79 259 0
80 274 0
95 272 0
77 279 0
74 304 0
60 314 0
47 316 0
58 285 0
58 273 0
10 269 0
29 289 0
0 330 0
81 332 0
97 348 0
101 354 0
94 367 0
87 366 0
71 383 0
47 387 0
99 390 0
79 382 0
81 373 0
107 367 0
107 387 0
116 386 0
124 373 0
115 362 0
122 361 0
101 360 0
116 354 0
117 337 0
120 354 0
127 349 0
130 354 0
133 349 0
130 336 0
140 335 0
156 344 0
195 340 0
197 348 0
184 353 0
160 352 0
170 374 0
210 363 0
189 386 0
179 377 0
174 379 0
167 385 0
165 372 0
139 371 0
126 383 0
139 386 0
119 392 0
117 406 0
126 412 0
141 409 0
136 400 0
142 393 0
181 399 0
208 410 0
200 407 0
165 409 0
204 415 0
211 421 0
190 422 0
184 430 0
166 425 0
154 432 0
133 427 0
131 417 0
114 424 0
120 432 0
103 432 0
92 433 0
67 414 0
85 431 0
91 424 0
94 395 0
100 395 0
69 398 0
78 410 0
91 413 0
51 399 0
61 397 0
7 405 0
37 420 0
25 420 0
33 422 0
37 425 0
50 429 0
31 427 0
28 431 0
8 434 0
0 437 0
26 441 0
43 441 0
41 435 0
46 436 0
71 435 0
115 444 0
107 437 0
63 437 0
97 446 0
121 452 0
104 457 0
52 458 0
45 465 0
41 454 0
45 445 0
36 444 0
20 455 0
40 465 0
0 467 0
24 470 0
13 470 0
0 481 0
0 522 0
0 584 0
0 631 0
12 625 0
24 599 0
19 547 0
27 623 0
53 641 0
107 621 0
63 518 0
65 493 0
101 486 0
62 481 0
32 468 0
38 473 0
56 472 0
132 511 0
146 514 0
149 525 0
149 537 0
133 529 0
122 589 0
128 655 0
149 655 0
147 592 0
157 538 0
158 560 0
189 574 0
208 655 0
208 616 0
205 600 0
206 559 0
184 557 0
157 522 0
162 552 0
170 550 0
201 502 0
209 464 0
195 494 0
198 498 0
197 504 0
193 497 0
187 483 0
153 470 0
174 463 0
193 464 0
152 459 0
133 461 0
124 445 0
161 436 0
166 443 0
175 434 0
180 438 0
175 441 0
180 462 0
185 451 0
206 444 0
214 449 0
219 466 0
237 480 0
232 472 0
227 457 0
244 452 0
247 448 0
256 475 0
252 466 0
243 470 0
233 494 0
246 491 0
254 509 0
250 506 0
238 508 0
230 503 0
225 490 0
211 490 0
214 500 0
217 507 0
220 532 0
228 515 0
234 575 0
228 546 0
222 542 0
219 577 0
223 585 0
232 655 0
231 599 0
235 588 0
247 638 0
249 655 0
255 655 0
252 653 0
257 629 0
253 619 0
236 620 0
241 584 0
242 611 0
255 514 0
264 590 0
267 597 0
265 627 0
264 623 0
260 623 0
257 653 0
259 655 0
265 643 0
271 643 0
262 630 0
273 630 0
277 650 0
282 651 0
280 634 0
280 628 0
284 607 0
284 615 0
276 599 0
278 595 0
280 600 0
280 553 0
279 535 0
279 516 0
269 533 0
273 542 0
263 549 0
258 589 0
259 541 0
259 517 0
262 523 0
271 510 0
262 506 0
261 483 0
261 448 0
262 456 0
275 450 0
272 472 0
274 508 0
277 481 0
278 474 0
280 451 0
281 439 0
273 446 0
272 431 0
274 436 0
275 431 0
284 421 0
281 393 0
280 406 0
275 416 0
281 423 0
270 420 0
270 404 0
269 392 0
267 394 0
263 414 0
263 423 0
265 434 0
268 438 0
267 442 0
264 443 0
260 430 0
260 425 0
258 436 0
255 436 0
257 443 0
230 444 0
213 438 0
231 430 0
234 422 0
243 430 0
246 418 0
230 405 0
214 391 0
226 391 0
248 402 0
256 391 0
250 406 0
261 420 0
263 402 0
260 393 0
261 381 0
260 366 0
245 372 0
253 384 0
260 385 0
244 382 0
237 386 0
219 380 0
219 370 0
[...]
CELL_DATA 13483
COLOR_SCALARS ColorSpace 1
0.704575
0.322876
0.780392
0.722876
0.458824
0.12549
0.254902
0.147712
0.607843
0.202614
0.264052
0.633987
0.14902
0.347712
0.196078
0.633987
0.219608
0.637908
0.317647
0.866667
0.917647
0.300654
0.470588
0.614379
0.780392
0.11634
0.671895
0.643137
0.0732026
0.598693
0.19085
0.262745
0.915033
0.776471
0.866667
0.781699
0.137255
0.296732
0.871895
0.0980392
0.270588
0.917647
0.75817
0.869281
0.682353
0.917647
0.252288
0.407843
0.332026
0.440523
0.256209
0.262745
0.0718954
0.619608
0.0718954
0.87451
0.0627451
0.186928
0.917647
0.91634
0.635294
0.410458
0.0627451
0.917647
0.220915
0.0784314
0.258824
0.912418
0.739869
0.0627451
0.359477
0.112418
0.347712
0.258824
0.264052
0.918954
0.271895
0.618301
0.917647
0.623529
0.35817
0.266667
0.901961
0.24183
0.449673
0.186928
0.462745
0.90719
0.256209
0.381699
0.173856
0.249673
0.654902
0.206536
0.917647
0.151634
0.917647
0.267974
0.917647
0.908497
0.269281
0.420915
0.911111
0.90719
0.269281
0.269281
0.747712
0.682353
0.205229
0.210458
0.273203
0.920261
0.226144
0.244444
0.780392
0.197386
0.671895
0.130719
0.541176
0.584314
0.0941176
0.256209
0.141176
0.322876
0.769935
0.318954
0.68366
0.15817
0.866667
0.593464
0.730719
0.830065
0.862745
0.2
0.648366
0.184314
0.911111
0.701961
0.917647
0.261438
0.271895
0.069281
0.555556
0.543791
0.708497
0.899346
0.416993
0.917647
0.917647
0.917647
0.917647
0.249673
0.484967
0.917647
0.135948
0.175163
0.627451
0.875817
0.0928105
0.610458
0.583007
0.691503
0.667974
0.698039
0.917647
0.228758
0.644444
0.304575
0.245752
0.500654
0.917647
0.231373
0.151634
0.193464
0.299346
0.338562
0.760784
0.780392
0.275817
0.449673
0.917647
0.196078
0.673203
0.192157
0.780392
0.129412
0.341176
0.109804
0.0771242
0.917647
0.145098
0.900654
0.915033
0.666667
0.918954
0.478431
0.917647
0.649673
0.918954
0.252288
0.0627451
0.63268
0.163399
0.330719
0.194771
0.898039
0.917647
0.20915
0.63268
0.0640523
0.0627451
0.139869
0.0627451
0.917647
0.245752
0.918954
0.233987
0.917647
0.184314
0.90719
0.908497
0.917647
0.917647
0.913725
0.260131
0.620915
0.261438
0.481046
0.888889
0.139869
0.88366
0.326797
0.266667
0.909804
0.261438
0.0627451
0.0627451
0.633987
0.363399
0.350327
0.917647
0.372549
0.917647
0.912418
0.0627451
0.0627451
0.347712
0.0797386
0.34902
0.347712
0.917647
0.917647
0.917647
0.0653595
0.644444
0.352941
0.0653595
0.917647
0.0627451
0.0718954
0.0627451
0.681046
0.0627451
0.233987
0.0627451
0.0993464
0.917647
0.352941
0.671895
0.0627451
0.364706
0.181699
0.257516
0.244444
0.623529
0.11634
0.237908
0.904575
0.181699
0.183007
0.91634
0.235294
0.89281
0.335948
0.666667
0.547712
0.644444
0.23268
0.328105
0.691503
0.908497
0.354248
0.214379
0.324183
0.0784314
0.152941
0.705882
0.405229
0.11634
0.216993
0.613072
0.780392
0.780392
0.780392
0.720261
0.777778
0.185621
0.653595
0.227451
0.475817
0.780392
0.773856
0.780392
0.780392
0.177778
0.132026
0.231373
0.490196
0.266667
0.267974
0.36732
0.917647
0.256209
0.248366
0.257516
0.550327
0.143791
0.264052
0.31634
0.320261
0.383007
0.267974
0.175163
0.260131
0.479739
0.652288
0.266667
0.694118
0.481046
0.667974
0.266667
0.917647
0.49281
0.636601
0.917647
0.917647
0.903268
0.917647
0.917647
0.630065
0.915033
0.271895
0.917647
0.917647
0.88366
0.275817
0.917647
0.917647
0.917647
0.917647
0.917647
0.905882
0.917647
0.90719
0.254902
0.194771
0.258824
0.467974
0.698039
0.498039
0.266667
0.684967
0.383007
0.637908
0.424837
0.264052
0.900654
0.197386
0.2
0.746405
0.264052
0.75817
0.775163
0.267974
0.265359
0.917647
0.424837
0.262745
0.265359
0.266667
0.45098
0.270588
0.917647
0.640523
0.91634
0.912418
0.917647
0.619608
0.359477
0.637908
0.244444
0.269281
0.666667
0.269281
0.254902
0.917647
0.915033
0.688889
0.633987
0.917647
0.917647
0.917647
0.917647
0.258824
0.917647
0.915033
0.917647
0.917647
0.920261
0.917647
0.917647
0.917647
0.121569
0.900654
0.909804
0.266667
0.264052
0.573856
0.220915
0.545098
0.265359
0.72549
0.547712
0.115033
0.780392
0.777778
0.781699
0.324183
0.132026
0.779085
0.271895
0.917647
0.2
0.213072
0.275817
0.917647
0.917647
0.91634
0.384314
0.486275
0.899346
0.917647
0.912418
0.410458
0.896732
0.228758
0.913725
0.247059
0.918954
0.220915
0.917647
0.711111
0.231373
0.917647
0.271895
0.0679739
0.705882
0.270588
0.111111
0.0797386
0.337255
0.505882
0.854902
0.756863
0.878431
0.644444
0.780392
0.219608
0.448366
0.132026
0.0823529
0.830065
0.0862745
0.262745
0.76732
0.265359
0.780392
0.780392
0.240523
0.780392
0.101961
0.130719
0.121569
0.128105
0.695425
0.145098
0.180392
0.139869
0.471895
0.601307
0.104575
0.254902
0.260131
0.216993
0.308497
0.568627
0.267974
0.866667
0.194771
0.154248
0.197386
0.52549
0.777778
0.4
0.775163
0.403922
0.423529
0.722876
0.282353
0.146405
0.75817
0.437908
0.142484
0.389542
0.145098
0.70719
0.139869
0.233987
0.688889
0.537255
0.698039
0.602614
0.534641
0.326797
0.737255
0.864052
0.146405
0.282353
0.686275
0.867974
0.547712
0.862745
0.611765
0.68366
0.366013
0.0653595
0.303268
0.0823529
0.069281
0.771242
0.0653595
0.780392
0.637908
0.709804
0.50719
0.0679739
0.0653595
0.785621
0.780392
0.253595
0.780392
0.203922
0.2
0.494118
0.260131
0.64183
0.871895
0.65098
0.257516
0.256209
0.24183
0.47451
0.917647
0.249673
0.917647
0.0679739
0.0640523
0.903268
0.917647
0.917647
0.917647
0.25098
0.215686
0.132026
0.0784314
0.684967
0.0627451
0.0627451
0.0666667
0.359477
0.571242
0.487582
0.346405
0.414379
0.884967
0.901961
0.264052
0.470588
0.917647
0.356863
0.91634
0.216993
0.909804
0.188235
0.920261
0.917647
0.917647
0.917647
0.137255
0.236601
0.917647
0.917647
0.917647
0.886275
0.917647
0.909804
0.917647
0.917647
0.917647
0.917647
0.633987
0.48366
0.213072
0.861438
0.63268
0.227451
0.635294
0.917647
0.917647
0.917647
0.189542
0.213072
0.720261
0.228758
0.407843
0.171242
0.137255
0.566013
0.819608
0.798693
0.605229
0.627451
0.705882
0.581699
0.423529
0.49281
0.711111
0.671895
0.696732
0.722876
0.184314
0.560784
0.568627
0.275817
0.51634
0.482353
0.69281
0.673203
0.901961
0.539869
0.288889
0.917647
0.222222
0.628758
0.379085
0.917647
0.91634
0.662745
0.917647
0.236601
0.60915
0.917647
0.184314
0.898039
0.917647
0.223529
0.377778
0.917647
0.260131
0.917647
0.23268
0.264052
0.244444
0.477124
0.201307
0.917647
0.921569
0.350327
0.640523
0.715033
0.258824
0.183007
0.354248
0.371242
0.14902
0.236601
0.469281
0.894118
0.473203
0.918954
0.696732
0.695425
0.603922
0.705882
0.639216
0.264052
0.228758
0.196078
0.173856
0.728105
0.15817
0.244444
0.618301
0.210458
0.616993
0.8
0.606536
0.871895
0.469281
0.737255
0.833987
0.777778
0.453595
0.813072
0.679739
0.481046
0.660131
0.780392
0.737255
0.372549
0.780392
0.511111
0.781699
0.735948
0.63268
0.686275
0.735948
0.639216
0.362092
0.298039
0.252288
0.426144
0.239216
0.460131
0.781699
0.258824
0.917647
0.0797386
0.24183
0.64183
0.265359
0.688889
0.354248
0.780392
0.636601
0.708497
0.658824
0.694118
0.721569
0.120261
0.181699
0.198693
0.10719
0.615686
0.356863
0.171242
0.887582
0.903268
0.118954
0.901961
0.0627451
0.628758
0.626144
0.0823529
0.915033
0.917647
0.60915
0.88366
0.636601
0.164706
0.34902
0.152941
0.143791
0.917647
0.888889
0.0627451
0.917647
0.917647
0.0928105
0.146405
0.261438
0.261438
0.917647
0.264052
0.909804
0.628758
0.253595
0.696732
0.772549
0.917647
0.363399
0.637908
0.249673
0.918954
0.260131
0.917647
0.137255
0.639216
0.452288
0.671895
0.917647
0.249673
0.917647
0.269281
0.918954
0.130719
0.675817
0.350327
0.0875817
0.917647
0.911111
0.917647
0.264052
0.917647
0.607843
0.606536
0.91634
0.233987
0.189542
0.129412
0.152941
0.12549
0.383007
0.616993
0.0627451
0.0679739
0.63268
0.0627451
0.351634
0.900654
0.0627451
0.915033
0.350327
0.0627451
0.0627451
0.36732
0.235294
0.899346
0.151634
0.260131
0.657516
0.211765
0.362092
0.143791
0.917647
0.644444
0.917647
0.854902
0.177778
0.91634
0.273203
0.25098
0.478431
0.258824
0.701961
0.91634
0.913725
0.917647
0.267974
0.917647
0.917647
0.267974
0.917647
0.918954
0.917647
0.917647
0.917647
0.261438
0.917647
0.258824
0.482353
0.261438
0.918954
0.352941
0.917647
0.356863
0.481046
0.243137
0.264052
0.14902
0.261438
0.258824
0.63268
0.130719
0.258824
0.635294
0.188235
0.354248
0.0627451
0.921569
0.253595
0.630065
0.261438
0.258824
0.466667
0.233987
0.354248
0.236601
0.261438
0.257516
0.88366
0.264052
0.891503
0.905882
0.857516
0.908497
0.89281
0.266667
0.222222
0.504575
0.228758
0.146405
0.337255
0.260131
0.636601
0.262745
0.261438
0.262745
0.16732
0.262745
0.364706
0.260131
0.894118
0.87451
0.342484
0.237908
0.588235
0.188235
0.360784
0.917647
0.611765
0.0653595
0.917647
0.0627451
0.884967
0.0849673
0.360784
0.359477
0.899346
0.0627451
0.895425
0.875817
0.0901961
0.34902
0.912418
0.0627451
0.917647
0.875817
0.0771242
0.869281
0.0627451
0.0627451
0.334641
0.334641
0.63268
0.90719
0.352941
0.0888889
0.359477
0.918954
0.0679739
0.369935
0.886275
0.917647
0.917647
0.917647
0.917647
0.917647
0.917647
0.63268
0.639216
0.346405
0.0627451
0.0627451
0.0627451
0.63268
0.0627451
0.152941
0.0627451
0.909804
0.075817
0.623529
0.64183
0.0627451
0.896732
0.0627451
0.905882
0.0627451
0.903268
0.631373
0.915033
0.34902
0.630065
0.0627451
0.0627451
0.0627451
0.34902
0.0653595
0.917647
0.0653595
0.0627451
0.917647
0.917647
0.917647
0.0836601
0.0627451
0.347712
0.917647
0.917647
0.0627451
0.0640523
0.63268
0.63268
0.917647
0.0627451
0.917647
0.63268
0.917647
0.917647
0.917647
0.0627451
0.917647
0.917647
0.917647
0.917647
0.917647
0.917647
0.364706
0.63268
0.0627451
0.0797386
0.335948
0.917647
0.917647
0.364706
0.652288
0.0627451
0.0627451
0.0797386
0.0627451
0.0797386
0.0627451
0.0627451
0.635294
0.0915033
0.647059
0.0627451
0.627451
0.108497
0.0627451
0.0666667
0.917647
0.0718954
0.0627451
0.0627451
0.0771242
0.913725
0.901961
0.0627451
0.633987
0.635294
0.912418
0.239216
0.884967
0.369935
0.662745
0.0627451
0.915033
0.168627
0.206536
0.393464
0.177778
0.249673
0.117647
0.228758
0.381699
0.156863
0.0627451
0.89281
0.0627451
0.0901961
0.0771242
0.0627451
0.375163
0.635294
0.0627451
0.0627451
0.619608
0.0784314
0.426144
0.656209
0.069281
0.0705882
0.376471
0.341176
0.643137
0.215686
0.112418
0.0718954
0.90719
0.364706
0.0888889
0.912418
0.075817
0.139869
0.104575
0.147712
0.23268
0.354248
0.216993
0.262745
0.19085
0.254902
0.164706
0.261438
0.222222
0.218301
0.427451
0.264052
0.396078
0.264052
0.256209
0.244444
0.366013
0.0640523
0.25098
0.137255
0.147712
0.213072
0.91634
0.23268
0.364706
0.635294
0.891503
0.915033
0.635294
0.113725
0.124183
0.264052
0.172549
0.216993
0.210458
0.261438
0.220915
0.607843
0.211765
0.257516
0.633987
0.14902
0.334641
0.660131
0.228758
0.780392
0.715033
0.495425
0.470588
0.201307
0.701961
0.35817
0.346405
0.917647
0.918954
0.607843
0.917647
0.63268
0.917647
0.0627451
0.917647
0.630065
0.0627451
0.112418
0.0627451
0.918954
0.363399
0.917647
0.332026
0.0627451
0.900654
0.0627451
0.213072
0.635294
0.10719
0.185621
0.917647
0.606536
0.89281
0.363399
0.895425
0.917647
0.917647
0.129412
0.90719
0.201307
0.70719
0.678431
0.671895
0.256209
0.300654
0.109804
0.359477
0.069281
0.91634
0.920261
0.91634
0.647059
0.12549
0.482353
0.715033
0.48366
0.783007
0.780392
0.16732
0.228758
0.780392
0.780392
0.694118
0.780392
0.70719
0.79085
0.686275
0.715033
0.726797
0.698039
0.729412
0.739869
0.360784
0.405229
0.780392
0.780392
0.610458
0.305882
0.366013
0.467974
0.383007
0.735948
0.620915
0.741176
0.295425
0.690196
0.718954
0.339869
0.688889
0.701961
0.717647
0.343791
0.219608
0.490196
0.65098
0.375163
0.354248
0.265359
0.318954
0.177778
0.780392
0.133333
0.350327
0.780392
0.12549
0.122876
0.780392
0.550327
0.780392
0.666667
0.780392
0.575163
0.780392
0.698039
0.780392
0.54902
0.554248
0.743791
0.30719
0.214379
0.233987
0.265359
0.690196
0.262745
0.479739
0.317647
0.667974
0.469281
0.139869
0.264052
0.594771
0.776471
0.214379
0.249673
0.401307
0.606536
0.244444
0.917647
0.47451
0.201307
0.917647
0.918954
0.633987
0.635294
0.193464
0.633987
0.424837
0.917647
0.219608
0.898039
0.917647
0.356863
0.631373
0.917647
0.888889
0.44183
0.917647
0.917647
0.414379
0.270588
0.261438
0.695425
0.24183
0.203922
0.917647
0.684967
0.630065
0.261438
0.917647
0.917647
0.909804
0.917647
0.913725
0.909804
0.900654
0.91634
0.913725
0.917647
0.911111
0.273203
0.269281
0.918954
0.271895
0.267974
0.462745
0.915033
0.256209
0.180392
0.186928
0.230065
0.262745
0.0980392
0.261438
0.240523
0.262745
0.256209
0.265359
0.271895
0.203922
0.354248
0.240523
0.197386
0.262745
0.267974
0.269281
0.270588
0.705882
0.197386
0.265359
0.262745
0.911111
0.270588
0.129412
0.248366
0.262745
0.256209
0.265359
0.665359
0.630065
0.43268
0.921569
0.235294
0.622222
0.261438
0.478431
0.244444
0.111111
0.20915
0.60915
0.224837
0.913725
0.444444
0.469281
0.220915
0.445752
0.256209
0.917647
0.917647
0.630065
0.917647
0.917647
0.917647
0.917647
0.917647
0.917647
0.917647
0.917647
0.649673
0.211765
0.917647
0.385621
0.904575
0.917647
0.917647
0.917647
0.917647
0.917647
0.917647
0.636601
0.917647
0.917647
0.260131
0.894118
0.461438
0.90719
0.465359
0.267974
0.636601
0.416993
0.667974
0.636601
0.406536
0.206536
0.616993
0.2
0.205229
0.917647
0.23268
0.911111
0.918954
0.917647
0.904575
0.917647
0.917647
0.917647
0.917647
0.917647
0.911111
0.917647
0.186928
0.917647
0.917647
0.917647
0.917647
0.917647
0.917647
0.636601
0.490196
0.25098
0.271895
0.25098
0.265359
0.262745
0.635294
0.260131
0.237908
0.918954
0.918954
0.917647
0.628758
0.271895
0.271895
0.91634
0.258824
0.435294
0.262745
0.631373
0.198693
0.192157
0.91634
0.63268
0.244444
0.899346
0.619608
0.626144
0.192157
0.904575
0.249673
0.265359
0.261438
0.630065
0.279739
0.231373
0.188235
0.176471
0.258824
0.197386
0.270588
0.258824
0.198693
0.267974
0.273203
0.265359
0.244444
0.261438
0.130719
0.211765
0.128105
0.420915
0.270588
0.0849673
0.206536
0.189542
0.230065
0.260131
0.681046
0.271895
0.249673
0.500654
0.679739
0.686275
0.682353
0.626144
0.70719
0.656209
0.219608
0.430065
0.371242
0.271895
0.264052
0.262745
0.366013
0.260131
0.258824
0.265359
0.915033
0.67451
0.270588
0.918954
0.437908
0.205229
0.258824
0.258824
0.262745
0.260131
0.260131
0.260131
0.760784
0.643137
0.750327
0.109804
0.756863
0.712418
0.194771
0.755556
0.775163
0.751634
0.785621
0.0679739
0.779085
0.377778
0.780392
0.368627
0.146405
0.240523
0.203922
0.486275
0.257516
0.258824
0.270588
0.265359
0.918954
0.91634
0.261438
0.917647
0.389542
0.262745
0.243137
0.266667
0.192157
0.266667
0.264052
0.257516
0.193464
0.366013
0.253595
0.183007
0.406536
0.244444
0.16732
0.222222
0.27451
0.254902
0.223529
0.643137
0.363399
0.359477
0.664052
0.264052
0.917647
0.917647
0.398693
0.261438
0.917647
0.91634
0.912418
0.636601
0.47451
0.675817
0.269281
0.416993
0.64183
0.891503
0.126797
0.920261
0.917647
0.915033
0.917647
0.917647
0.917647
0.267974
0.917647
0.260131
0.467974
0.262745
0.270588
0.244444
0.264052
0.24183
0.264052
0.142484
0.261438
0.397386
0.269281
0.188235
0.254902
0.226144
0.264052
0.260131
0.265359
0.457516
0.917647
0.915033
0.677124
0.917647
0.63268
0.457516
0.269281
0.905882
0.239216
0.917647
0.917647
0.888889
0.917647
0.917647
0.917647
0.917647
0.917647
0.917647
0.917647
0.917647
0.917647
0.917647
0.917647
0.917647
0.917647
0.917647
0.917647
0.917647
0.917647
0.917647
0.917647
0.917647
0.917647
0.917647
0.917647
0.917647
0.918954
0.920261
0.917647
0.917647
0.267974
0.908497
0.917647
0.917647
0.917647
0.915033
0.267974
0.90719
0.701961
0.649673
0.270588
0.91634
0.202614
0.890196
0.458824
0.917647
0.917647
0.917647
0.917647
0.917647
0.917647
0.917647
0.917647
0.457516
0.918954
0.913725
0.917647
0.917647
0.913725
0.917647
0.917647
0.917647
0.917647
0.917647
0.215686
0.917647
0.917647
0.898039
0.261438
0.677124
0.917647
0.265359
0.917647
0.917647
0.779085
0.917647
0.35817
0.712418
0.330719
0.805229
0.784314
0.788235
0.267974
0.261438
0.797386
0.265359
0.298039
0.253595
0.262745
0.218301
0.780392
0.713725
0.780392
0.783007
0.258824
0.256209
0.244444
0.271895
0.218301
0.261438
0.14902
0.258824
0.742484
0.258824
0.522876
0.772549
0.759477
0.780392
0.538562
0.303268
0.330719
0.784314
0.779085
0.2
0.780392
0.406536
0.783007
0.780392
0.780392
0.789542
0.746405
0.0823529
0.720261
0.265359
0.764706
0.780392
0.396078
0.645752
0.288889
0.498039
0.501961
0.783007
0.315033
0.376471
0.0810458
0.117647
0.645752
0.775163
0.0941176
0.746405
0.781699
0.320261
0.781699
0.686275
0.745098
0.751634
0.780392
0.780392
0.760784
0.779085
0.780392
0.775163
0.779085
0.380392
0.779085
0.751634
0.154248
0.201307
0.783007
0.733333
0.275817
0.258824
0.069281
0.71634
0.134641
0.162092
0.228758
0.90719
0.911111
0.503268
0.917647
0.917647
0.477124
0.19085
0.678431
0.917647
0.637908
0.917647
0.918954
0.898039
0.918954
0.677124
0.237908
0.132026
0.257516
0.917647
0.905882
0.426144
0.176471
0.185621
0.90719
0.724183
0.776471
0.262745
0.262745
0.184314
0.913725
0.169935
0.917647
0.228758
0.243137
0.254902
0.261438
0.917647
0.186928
0.917647
0.137255
0.126797
0.359477
0.410458
0.252288
0.184314
0.111111
0.917647
0.917647
0.917647
0.903268
0.917647
0.909804
0.917647
0.252288
0.456209
0.913725
0.481046
0.63268
0.253595
0.905882
0.262745
0.254902
0.64183
0.471895
0.0627451
0.129412
0.545098
0.854902
0.222222
0.0679739
0.262745
0.271895
0.133333
0.0653595
0.227451
0.117647
0.260131
0.269281
0.585621
0.203922
0.30719
0.780392
0.359477
0.342484
0.069281
0.780392
0.524183
0.780392
0.75817
0.777778
0.311111
0.569935
0.730719
0.223529
0.780392
0.729412
0.780392
0.789542
0.686275
0.776471
0.656209
0.783007
0.781699
0.780392
0.589542
0.780392
0.431373
0.520261
0.779085
0.733333
0.216993
0.55817
0.482353
0.745098
0.678431
0.564706
0.768627
0.129412
0.45098
0.453595
0.169935
0.194771
0.533333
0.822222
0.877124
0.566013
0.151634
0.708497
0.237908
0.2
0.406536
0.394771
0.479739
0.875817
0.202614
0.611765
0.134641
0.219608
0.206536
0.320261
0.759477
0.363399
0.705882
0.509804
0.750327
0.695425
0.511111
0.163399
0.74902
0.130719
0.577778
0.858824
0.882353
0.542484
0.226144
0.406536
0.738562
0.137255
0.72549
0.718954
0.160784
0.154248
0.462745
0.698039
0.129412
0.288889
0.141176
0.143791
0.124183
0.500654
0.700654
0.352941
0.129412
0.294118
0.181699
0.877124
0.763399
0.231373
0.177778
0.291503
0.150327
0.130719
0.175163
0.261438
0.146405
0.381699
0.350327
0.433987
0.627451
0.870588
0.184314
0.486275
0.853595
0.84183
0.560784
0.890196
0.379085
0.6
0.257516
0.207843
0.196078
0.257516
0.266667
0.120261
0.275817
0.305882
0.269281
0.311111
0.515033
0.269281
0.0941176
0.243137
0.569935
0.377778
0.381699
0.664052
0.607843
0.724183
0.275817
0.14902
0.188235
0.777778
0.270588
0.385621
0.435294
0.262745
0.785621
0.51634
0.713725
0.70719
0.55817
0.467974
0.75817
0.783007
0.76732
0.475817
0.295425
0.8
0.256209
0.517647
0.402614
0.371242
0.262745
0.555556
0.875817
0.845752
0.443137
0.75817
0.433987
0.339869
0.479739
0.397386
0.430065
0.751634
0.779085
0.788235
0.845752
0.811765
0.633987
0.844444
0.512418
0.884967
0.756863
0.704575
0.763399
0.888889
0.313725
0.601307
0.419608
0.436601
0.142484
0.406536
0.154248
0.482353
0.487582
0.435294
0.256209
0.146405
0.142484
0.133333
0.338562
0.112418
0.332026
0.543791
0.117647
0.873203
0.155556
0.146405
0.729412
0.154248
0.815686
0.852288
0.48366
0.728105
0.403922
0.670588
0.141176
0.120261
0.139869
0.143791
0.126797
0.128105
0.878431
0.6
0.522876
0.213072
0.759477
0.142484
0.141176
0.334641
0.249673
0.109804
0.206536
0.393464
0.151634
0.233987
0.262745
0.258824
0.261438
0.264052
0.258824
0.228758
0.865359
0.524183
0.236601
0.24183
0.299346
0.589542
0.103268
0.792157
0.87451
0.352941
0.870588
0.618301
0.862745
0.74902
0.500654
0.194771
0.869281
0.122876
0.84183
0.130719
0.354248
0.869281
0.54902
0.147712
0.813072
0.142484
0.503268
0.466667
0.737255
0.806536
0.419608
0.742484
0.701961
0.576471
0.858824
0.579085
0.773856
0.869281
0.708497
0.196078
0.610458
0.682353
0.371242
0.501961
0.726797
0.388235
0.0627451
0.588235
0.0718954
0.0627451
0.0653595
0.189542
0.0640523
0.0627451
0.271895
0.322876
0.284967
0.715033
0.0666667
0.722876
0.482353
0.403922
0.0679739
0.291503
0.202614
0.0627451
0.703268
0.779085
0.366013
0.828758
0.607843
0.830065
0.346405
0.636601
0.733333
0.75817
0.415686
0.535948
0.376471
0.877124
0.150327
0.867974
0.347712