# vtk DataFile Version 1.0
Unstructured Grid Example
ASCII

DATASET UNSTRUCTURED_GRID
POINTS 2224 float
307 359 0
267 1 0
292 370 0
246 512 0
334 440 0
399 470 0
322 73 0
432 10 0
0 36 0
60 5 0
285 57 0
207 102 0
194 110 0
112 262 0
95 341 0
118 379 0
0 394 0
259 655 0
203 544 0
270 421 0
245 378 0
347 444 0
315 472 0
375 575 0
428 462 0
444 454 0
465 448 0
432 434 0
344 420 0
294 425 0
330 36 0
317 42 0
332 48 0
363 305 0
45 1 0
62 2 0
48 18 0
103 75 0
68 11 0
87 8 0
113 38 0
122 1 0
124 41 0
265 86 0
253 55 0
248 63 0
181 77 0
202 327 0
232 105 0
283 115 0
299 343 0
297 357 0
267 336 0
170 343 0
160 100 0
133 98 0
95 94 0
121 126 0
72 210 0
57 269 0
53 419 0
166 422 0
167 383 0
185 472 0
170 438 0
116 428 0
140 492 0
162 497 0
199 503 0
228 585 0
241 655 0
206 559 0
237 559 0
252 487 0
251 625 0
258 644 0
283 536 0
286 514 0
289 508 0
265 397 0
256 442 0
247 422 0
246 385 0
248 390 0
256 357 0
274 370 0
300 385 0
308 373 0
355 401 0
354 445 0
351 433 0
341 439 0
314 492 0
319 525 0
320 626 0
353 489 0
360 509 0
331 486 0
352 483 0
424 454 0
405 575 0
365 615 0
511 655 0
425 509 0
445 479 0
392 450 0
385 441 0
375 436 0
378 423 0
369 420 0
403 424 0
410 380 0
515 346 0
465 345 0
435 323 0
427 237 0
415 280 0
413 360 0
373 314 0
373 340 0
351 314 0
316 78 0
302 67 0
388 264 0
394 72 0
365 54 0
328 50 0
320 66 0
306 34 0
304 21 0
367 48 0
375 33 0
408 22 0
412 24 0
381 51 0
418 50 0
424 25 0
421 16 0
453 1 0
0 1 0
42 1 0
48 1 0
70 7 0
51 8 0
38 6 0
5 18 0
7 56 0
0 68 0
63 76 0
62 43 0
66 30 0
65 14 0
86 49 0
109 61 0
106 68 0
113 68 0
119 45 0
130 34 0
108 18 0
87 29 0
86 21 0
93 9 0
73 1 0
111 14 0
123 7 0
146 12 0
135 19 0
136 40 0
172 44 0
152 39 0
181 1 0
202 11 0
228 1 0
281 1 0
239 42 0
278 27 0
226 15 0
199 27 0
270 48 0
276 54 0
278 59 0
273 61 0
235 73 0
203 61 0
187 70 0
203 70 0
196 63 0
175 48 0
179 48 0
152 54 0
135 59 0
201 80 0
189 82 0
221 126 0
224 179 0
238 118 0
242 88 0
245 103 0
262 94 0
275 81 0
289 178 0
278 146 0
263 165 0
253 258 0
254 314 0
266 319 0
285 317 0
286 325 0
259 338 0
258 323 0
248 335 0
252 328 0
252 292 0
209 308 0
200 289 0
243 350 0
229 356 0
135 309 0
130 333 0
112 322 0
122 224 0
145 278 0
149 261 0
170 223 0
149 81 0
176 77 0
126 83 0
116 80 0
149 100 0
111 138 0
104 149 0
104 91 0
99 80 0
93 79 0
83 193 0
90 206 0
74 250 0
85 212 0
91 251 0
94 317 0
50 275 0
27 294 0
0 321 0
19 384 0
68 404 0
97 412 0
133 382 0
123 375 0
126 366 0
150 372 0
195 373 0
238 362 0
200 391 0
214 402 0
169 376 0
165 396 0
116 418 0
124 427 0
143 415 0
239 437 0
232 428 0
159 437 0
94 438 0
58 434 0
43 422 0
13 422 0
41 431 0
36 435 0
11 436 0
21 444 0
45 444 0
121 449 0
159 518 0
80 470 0
0 499 0
14 643 0
0 646 0
16 655 0
38 655 0
86 655 0
73 573 0
177 532 0
196 541 0
186 563 0
206 626 0
240 614 0
236 582 0
219 549 0
235 516 0
219 516 0
192 500 0
193 474 0
185 482 0
210 496 0
241 491 0
245 461 0
252 449 0
257 450 0
253 463 0
249 466 0
244 481 0
246 611 0
242 620 0
255 636 0
262 630 0
258 622 0
263 596 0
261 504 0
264 609 0
272 613 0
268 642 0
277 631 0
276 598 0
289 595 0
283 529 0
274 555 0
273 517 0
272 462 0
281 517 0
284 481 0
287 492 0
285 433 0
281 426 0
283 413 0
280 419 0
277 427 0
279 443 0
263 443 0
262 436 0
251 442 0
253 424 0
261 432 0
271 431 0
275 431 0
257 412 0
254 390 0
242 403 0
256 367 0
257 385 0
257 380 0
260 359 0
273 390 0
259 399 0
278 391 0
280 369 0
288 368 0
283 356 0
297 370 0
303 371 0
308 393 0
315 398 0
313 376 0
315 368 0
320 368 0
364 385 0
365 402 0
346 406 0
365 408 0
324 403 0
319 405 0
336 432 0
348 417 0
364 423 0
345 437 0
341 434 0
340 444 0
333 426 0
324 419 0
321 415 0
304 421 0
295 411 0
290 424 0
318 426 0
302 494 0
325 491 0
326 462 0
329 504 0
310 498 0
294 496 0
295 517 0
297 536 0
294 543 0
299 612 0
302 564 0
311 535 0
314 510 0
349 512 0
351 617 0
345 621 0
360 655 0
353 605 0
373 553 0
344 495 0
336 485 0
334 495 0
339 460 0
332 472 0
340 472 0
365 481 0
378 484 0
393 473 0
402 485 0
403 520 0
401 555 0
374 494 0
385 577 0
376 611 0
384 624 0
393 576 0
395 593 0
388 571 0
405 564 0
412 560 0
435 577 0
517 655 0
522 655 0
522 642 0
522 598 0
522 518 0
435 513 0
430 558 0
433 491 0
426 473 0
434 484 0
437 497 0
465 456 0
473 455 0
452 447 0
429 453 0
445 463 0
434 466 0
409 465 0
377 466 0
377 472 0
391 444 0
382 454 0
399 462 0
400 451 0
395 422 0
395 415 0
388 423 0
385 374 0
422 365 0
435 383 0
435 364 0
444 426 0
448 437 0
480 406 0
472 428 0
522 374 0
454 367 0
522 351 0
511 360 0
458 339 0
411 330 0
505 338 0
522 332 0
454 322 0
522 319 0
522 285 0
427 303 0
431 275 0
437 305 0
439 317 0
373 266 0
379 264 0
375 259 0
353 214 0
349 230 0
368 259 0
351 322 0
357 320 0
403 279 0
375 328 0
403 358 0
362 340 0
358 326 0
337 355 0
330 345 0
349 344 0
317 343 0
313 351 0
323 352 0
309 356 0
300 353 0
294 354 0
307 347 0
292 341 0
308 352 0
312 346 0
311 326 0
297 335 0
291 326 0
295 292 0
313 311 0
317 325 0
322 291 0
318 331 0
330 336 0
344 324 0
335 292 0
345 211 0
336 193 0
362 97 0
364 85 0
346 76 0
329 75 0
337 87 0
340 115 0
324 181 0
319 117 0
304 190 0
294 61 0
300 93 0
313 59 0
316 70 0
324 51 0
317 56 0
292 49 0
314 46 0
319 46 0
335 30 0
348 40 0
336 49 0
337 56 0
356 26 0
362 34 0
360 19 0
354 1 0
396 1 0
401 1 0
410 1 0
409 5 0
405 6 0
367 35 0
370 82 0
375 98 0
366 181 0
377 120 0
380 104 0
392 62 0
383 44 0
411 9 0
420 20 0
412 39 0
522 55 0
423 36 0
461 11 0
424 9 0
443 7 0
424 6 0
422 4 0
442 1 0
414 1 0
462 1 0
471 1 0
6 1 0
3 1 0
5 4 0
11 3 0
28 2 0
19 1 0
51 1 0
56 1 0
68 1 0
78 1 0
47 5 0
39 1 0
35 1 0
54 5 0
64 7 0
79 7 0
74 10 0
61 10 0
57 7 0
19 10 0
42 9 0
32 5 0
0 5 0
0 8 0
9 8 0
3 10 0
0 13 0
10 14 0
26 19 0
15 24 0
2 30 0
0 23 0
0 41 0
0 46 0
0 52 0
11 44 0
22 55 0
31 38 0
7 38 0
65 20 0
47 28 0
49 62 0
74 62 0
77 26 0
72 23 0
72 18 0
60 18 0
36 17 0
54 15 0
47 11 0
69 15 0
76 16 0
82 24 0
92 22 0
96 26 0
108 31 0
102 27 0
92 31 0
81 39 0
96 41 0
87 61 0
97 61 0
103 54 0
104 36 0
98 33 0
109 44 0
116 52 0
116 62 0
123 64 0
118 39 0
122 36 0
125 32 0
119 31 0
114 33 0
111 22 0
108 26 0
115 28 0
121 25 0
117 19 0
119 13 0
114 10 0
109 9 0
104 9 0
105 14 0
101 22 0
99 17 0
80 18 0
81 12 0
88 16 0
93 14 0
99 12 0
99 7 0
94 4 0
88 2 0
83 1 0
98 1 0
103 1 0
106 1 0
108 5 0
104 5 0
112 6 0
117 6 0
110 1 0
117 1 0
130 7 0
132 1 0
140 1 0
142 21 0
137 12 0
128 17 0
128 25 0
135 29 0
131 39 0
140 35 0
142 41 0
135 35 0
144 29 0
151 30 0
160 32 0
146 38 0
165 41 0
170 39 0
166 23 0
169 14 0
158 22 0
149 22 0
150 1 0
156 13 0
158 4 0
166 1 0
200 1 0
190 10 0
179 14 0
214 24 0
215 11 0
217 1 0
238 12 0
247 1 0
249 1 0
265 16 0
284 15 0
251 12 0
244 25 0
230 26 0
255 28 0
273 35 0
287 35 0
280 35 0
265 36 0
196 38 0
206 35 0
185 27 0
170 32 0
177 26 0
177 37 0
183 38 0
189 43 0
192 49 0
189 52 0
199 50 0
256 46 0
215 45 0
275 45 0
287 47 0
288 42 0
281 53 0
287 52 0
281 47 0
264 51 0
227 58 0
266 58 0
270 54 0
268 64 0
261 60 0
240 59 0
209 60 0
198 58 0
205 53 0
188 57 0
193 54 0
194 60 0
189 63 0
183 61 0
178 62 0
171 58 0
177 53 0
181 54 0
186 54 0
172 53 0
184 48 0
177 43 0
165 47 0
170 48 0
162 51 0
167 52 0
161 44 0
148 43 0
157 41 0
132 44 0
137 45 0
143 47 0
127 52 0
151 48 0
157 50 0
143 54 0
160 63 0
136 52 0
128 59 0
175 68 0
181 69 0
185 66 0
185 74 0
184 86 0
177 82 0
171 86 0
172 92 0
174 102 0
178 95 0
181 105 0
184 92 0
178 88 0
195 76 0
190 89 0
193 101 0
206 114 0
198 92 0
208 92 0
214 72 0
196 71 0
190 76 0
190 67 0
191 71 0
194 67 0
201 65 0
254 67 0
246 73 0
256 80 0
264 78 0
260 70 0
265 68 0
275 72 0
279 67 0
286 65 0
271 85 0
283 79 0
271 77 0
268 72 0
278 86 0
279 95 0
285 90 0
285 98 0
284 105 0
275 101 0
274 110 0
269 97 0
274 92 0
252 92 0
225 89 0
218 106 0
258 108 0
243 126 0
243 137 0
246 149 0
262 143 0
256 132 0
251 118 0
267 134 0
268 118 0
286 124 0
280 153 0
288 156 0
279 135 0
271 150 0
274 183 0
281 219 0
285 163 0
278 302 0
275 310 0
269 312 0
263 312 0
262 301 0
267 291 0
248 304 0
240 296 0
257 309 0
241 312 0
226 296 0
220 256 0
197 217 0
192 148 0
210 147 0
231 215 0
232 145 0
233 130 0
229 118 0
210 125 0
219 117 0
224 135 0
212 136 0
183 179 0
190 127 0
182 115 0
171 130 0
181 197 0
181 211 0
182 264 0
182 233 0
182 249 0
182 296 0
189 307 0
182 280 0
172 307 0
165 274 0
166 255 0
168 238 0
142 228 0
153 242 0
157 304 0
141 293 0
128 299 0
103 287 0
112 241 0
102 238 0
128 278 0
132 253 0
119 210 0
109 226 0
101 212 0
106 192 0
127 186 0
133 200 0
142 189 0
153 201 0
134 213 0
155 226 0
155 212 0
168 205 0
162 170 0
168 98 0
166 110 0
143 122 0
152 91 0
160 93 0
166 90 0
171 80 0
165 76 0
168 67 0
155 73 0
145 66 0
139 81 0
161 86 0
123 76 0
131 72 0
130 66 0
118 72 0
109 74 0
109 84 0
103 85 0
114 106 0
116 88 0
136 165 0
132 142 0
117 147 0
116 168 0
93 211 0
92 217 0
86 217 0
90 177 0
91 199 0
99 164 0
100 127 0
95 86 0
97 71 0
88 84 0
87 71 0
86 98 0
90 111 0
55 106 0
84 90 0
76 79 0
33 83 0
0 92 0
0 114 0
0 148 0
55 165 0
80 131 0
80 216 0
81 203 0
74 219 0
0 191 0
31 226 0
0 239 0
73 239 0
81 238 0
74 228 0
81 228 0
83 221 0
90 222 0
100 220 0
97 229 0
97 245 0
90 240 0
86 232 0
68 258 0
76 258 0
83 247 0
88 259 0
80 265 0
75 295 0
74 270 0
59 276 0
66 274 0
62 265 0
39 274 0
0 272 0
0 298 0
49 299 0
39 340 0
67 330 0
109 342 0
107 363 0
102 352 0
86 352 0
0 367 0
48 370 0
74 376 0
107 384 0
95 379 0
111 378 0
97 366 0
116 360 0
114 366 0
113 372 0
119 370 0
136 370 0
125 359 0
152 356 0
133 356 0
117 353 0
122 313 0
124 346 0
141 319 0
150 338 0
181 315 0
158 321 0
177 324 0
188 338 0
215 334 0
195 316 0
217 320 0
230 318 0
234 332 0
237 344 0
239 337 0
228 344 0
227 336 0
193 355 0
213 348 0
216 362 0
228 372 0
225 384 0
203 380 0
190 384 0
179 378 0
186 374 0
172 369 0
172 357 0
179 371 0
162 374 0
106 391 0
110 397 0
102 400 0
118 402 0
119 392 0
114 386 0
121 385 0
212 386 0
240 386 0
231 394 0
176 389 0
148 393 0
132 395 0
216 418 0
226 407 0
238 417 0
219 433 0
205 424 0
197 440 0
138 438 0
181 432 0
191 410 0
108 420 0
107 409 0
105 432 0
113 435 0
100 421 0
95 429 0
76 435 0
42 414 0
65 416 0
92 421 0
81 410 0
89 399 0
65 391 0
42 400 0
57 402 0
43 407 0
48 411 0
[...]
CELL_DATA 4294
COLOR_SCALARS ColorSpace 1
0.253595
0.207843
0.330719
0.177778
0.654902
0.69281
0.132026
0.839216
0.670588
0.252288
0.917647
0.347712
0.117647
0.917647
0.64183
0.205229
0.25098
0.0627451
0.637908
0.491503
0.918954
0.610458
0.636601
0.413072
0.6
0.917647
0.394771
0.780392
0.671895
0.763399
0.917647
0.913725
0.282353
0.145098
0.606536
0.159477
0.0679739
0.882353
0.742484
0.551634
0.197386
0.909804
0.398693
0.431373
0.215686
0.16732
0.405229
0.793464
0.315033
0.563399
0.678431
0.465359
0.124183
0.462745
0.359477
0.32549
0.0732026
0.643137
0.0745098
0.886275
0.243137
0.371242
0.901961
0.262745
0.258824
0.198693
0.34902
0.89281
0.879739
0.636601
0.894118
0.354248
0.0640523
0.639216
0.917647
0.627451
0.665359
0.635294
0.0627451
0.266667
0.886275
0.0627451
0.0627451
0.386928
0.65098
0.917647
0.175163
0.512418
0.891503
0.120261
0.730719
0.661438
0.533333
0.258824
0.763399
0.729412
0.586928
0.630065
0.681046
0.23268
0.117647
0.701961
0.203922
0.481046
0.488889
0.603922
0.2
0.233987
0.917647
0.328105
0.913725
0.648366
0.290196
0.266667
0.652288
0.261438
0.364706
0.917647
0.670588
0.291503
0.2
0.262745
0.142484
0.262745
0.266667
0.194771
0.265359
0.264052
0.546405
0.678431
0.447059
0.460131
0.249673
0.223529
0.265359
0.456209
0.339869
0.687582
0.777778
0.613072
0.917647
0.900654
0.43268
0.0732026
0.301961
0.566013
0.586928
0.656209
0.589542
0.141176
0.83268
0.552941
0.211765
0.551634
0.496732
0.857516
0.0993464
0.48366
0.36732
0.227451
0.564706
0.403922
0.815686
0.380392
0.163399
0.448366
0.464052
0.461438
0.269281
0.671895
0.324183
0.696732
0.372549
0.682353
0.377778
0.243137
0.484967
0.639216
0.482353
0.917647
0.682353
0.296732
0.126797
0.59085
0.534641
0.32549
0.0679739
0.256209
0.0666667
0.430065
0.660131
0.91634
0.858824
0.917647
0.2
0.479739
0.0980392
0.151634
0.419608
0.637908
0.681046
0.690196
0.715033
0.613072
0.465359
0.679739
0.436601
0.611765
0.607843
0.643137
0.601307
0.664052
0.913725
0.691503
0.193464
0.853595
0.613072
0.633987
0.461438
0.447059
0.899346
0.405229
0.197386
0.633987
0.177778
0.636601
0.248366
0.385621
0.606536
0.341176
0.743791
0.294118
0.265359
0.164706
0.430065
0.34902
0.312418
0.435294
0.691503
0.917647
0.198693
0.660131
0.401307
0.257516
0.196078
0.602614
0.635294
0.639216
0.633987
0.075817
0.406536
0.482353
0.359477
0.354248
0.329412
0.488889
0.377778
0.479739
0.256209
0.694118
0.271895
0.917647
0.350327
0.147712
0.0627451
0.643137
0.248366
0.624837
0.908497
0.0627451
0.598693
0.895425
0.635294
0.900654
0.181699
0.690196
0.908497
0.917647
0.917647
0.918954
0.427451
0.266667
0.913725
0.126797
0.34902
0.355556
0.137255
0.260131
0.696732
0.903268
0.375163
0.90719
0.918954
0.91634
0.91634
0.261438
0.135948
0.0653595
0.624837
0.0745098
0.633987
0.137255
0.0640523
0.636601
0.0627451
0.0627451
0.635294
0.0849673
0.623529
0.351634
0.917647
0.308497
0.633987
0.350327
0.918954
0.420915
0.913725
0.613072
0.59085
0.63268
0.326797
0.917647
0.0627451
0.63268
0.917647
0.917647
0.0627451
0.917647
0.63268
0.63268
0.917647
0.602614
0.0627451
0.0627451
0.0718954
0.0666667
0.352941
0.166013
0.657516
0.912418
0.351634
0.109804
0.0653595
0.0915033
0.616993
0.379085
0.362092
0.369935
0.337255
0.624837
0.0627451
0.19085
0.180392
0.627451
0.151634
0.64183
0.269281
0.156863
0.189542
0.34902
0.633987
0.34902
0.117647
0.260131
0.918954
0.423529
0.117647
0.377778
0.35817
0.890196
0.0627451
0.63268
0.322876
0.894118
0.60915
0.401307
0.0627451
0.704575
0.347712
0.152941
0.50719
0.698039
0.70719
0.754248
0.375163
0.479739
0.789542
0.717647
0.636601
0.746405
0.699346
0.437908
0.669281
0.270588
0.54902
0.771242
0.52549
0.373856
0.351634
0.768627
0.226144
0.606536
0.780392
0.701961
0.593464
0.564706
0.891503
0.407843
0.237908
0.261438
0.211765
0.437908
0.912418
0.240523
0.230065
0.424837
0.884967
0.210458
0.867974
0.633987
0.909804
0.147712
0.901961
0.780392
0.637908
0.262745
0.34902
0.240523
0.168627
0.911111
0.265359
0.227451
0.338562
0.279739
0.265359
0.25098
0.91634
0.265359
0.873203
0.369935
0.264052
0.624837
0.917647
0.884967
0.917647
0.422222
0.917647
0.664052
0.356863
0.911111
0.415686
0.636601
0.431373
0.712418
0.917647
0.917647
0.43268
0.865359
0.917647
0.917647
0.917647
0.917647
0.0745098
0.427451
0.635294
0.478431
0.414379
0.262745
0.695425
0.601307
0.419608
0.269281
0.698039
0.47451
0.267974
0.254902
0.29281
0.210458
0.426144
0.51634
0.360784
0.735948
0.301961
0.266667
0.202614
0.488889
0.477124
0.87451
0.419608
0.654902
0.213072
0.155556
0.172549
0.296732
0.479739
0.278431
0.278431
0.160784
0.265359
0.201307
0.262745
0.254902
0.454902
0.356863
0.267974
0.917647
0.192157
0.266667
0.258824
0.419608
0.666667
0.917647
0.908497
0.711111
0.262745
0.267974
0.133333
0.917647
0.698039
0.917647
0.664052
0.917647
0.917647
0.917647
0.89281
0.917647
0.917647
0.886275
0.267974
0.917647
0.91634
0.91634
0.908497
0.913725
0.915033
0.917647
0.911111
0.235294
0.482353
0.678431
0.23268
0.172549
0.424837
0.194771
0.264052
0.784314
0.298039
0.207843
0.729412
0.528105
0.31634
0.366013
0.334641
0.610458
0.436601
0.777778
0.460131
0.690196
0.261438
0.253595
0.482353
0.639216
0.713725
0.273203
0.679739
0.418301
0.373856
0.539869
0.657516
0.256209
0.917647
0.630065
0.671895
0.917647
0.677124
0.448366
0.470588
0.475817
0.231373
0.486275
0.780392
0.777778
0.419608
0.418301
0.64183
0.155556
0.359477
0.359477
0.636601
0.351634
0.19085
0.164706
0.231373
0.197386
0.354248
0.194771
0.211765
0.452288
0.32549
0.25098
0.435294
0.645752
0.337255
0.069281
0.779085
0.606536
0.684967
0.494118
0.433987
0.741176
0.547712
0.235294
0.213072
0.171242
0.871895
0.139869
0.410458
0.308497
0.735948
0.235294
0.673203
0.121569
0.637908
0.55817
0.551634
0.313725
0.342484
0.835294
0.520261
0.503268
0.379085
0.618301
0.613072
0.780392
0.152941
0.337255
0.813072
0.137255
0.181699
0.112418
0.193464
0.603922
0.886275
0.430065
0.346405
0.601307
0.67451
0.550327
0.345098
0.146405
0.342484
0.423529
0.413072
0.143791
0.796078
0.755556
0.640523
0.840523
0.290196
0.517647
0.401307
0.586928
0.461438
0.858824
0.341176
0.555556
0.115033
0.597386
0.366013
0.763399
0.673203
0.258824
0.422222
0.366013
0.704575
0.159477
0.867974
0.673203
0.14902
0.857516
0.869281
0.339869
0.14902
0.862745
0.264052
0.654902
0.616993
0.552941
0.105882
0.532026
0.454902
0.477124
0.546405
0.571242
0.47451
0.473203
0.699346
0.467974
0.566013
0.699346
0.666667
0.262745
0.865359
0.508497
0.72549
0.28366
0.150327
0.530719
0.83268
0.363399
0.769935
0.720261
0.730719
0.83268
0.177778
0.0640523
0.648366
0.780392
0.414379
0.699346
0.687582
0.775163
0.669281
0.713725
0.867974
0.739869
0.104575
0.257516
0.12549
0.431373
0.163399
0.607843
0.43268
0.240523
0.0679739
0.866667
0.866667
0.873203
0.128105
0.189542
0.917647
0.163399
0.633987
0.610458
0.633987
0.271895
0.197386
0.135948
0.265359
0.0627451
0.296732
0.538562
0.301961
0.415686
0.0849673
0.0745098
0.571242
0.163399
0.130719
0.50719
0.67451
0.469281
0.803922
0.428758
0.495425
0.669281
0.645752
0.25098
0.535948
0.635294
0.124183
0.635294
0.328105
0.59085
0.0627451
0.188235
0.193464
0.478431
0.91634
0.917647
0.91634
0.615686
0.473203
0.636601
0.703268
0.64183
0.132026
0.917647
0.607843
0.453595
0.899346
0.912418
0.917647
0.917647
0.917647
0.917647
0.917647
0.917647
0.192157
0.35817
0.643137
0.700654
0.0784314
0.500654
0.220915
0.627451
0.231373
0.34902
0.635294
0.350327
0.188235
0.592157
0.917647
0.917647
0.333333
0.28366
0.554248
0.355556
0.258824
0.385621
0.466667
0.29281
0.566013
0.282353
0.518954
0.592157
0.379085
0.069281
0.65098
0.669281
0.108497
0.701961
0.550327
0.715033
0.661438
0.688889
0.407843
0.730719
0.498039
0.60915
0.584314
0.48366
0.440523
0.265359
0.482353
0.682353
0.581699
0.427451
0.664052
0.627451
0.197386
0.437908
0.179085
0.636601
0.330719
0.614379
0.418301
0.917647
0.189542
0.479739
0.201307
0.419608
0.640523
0.342484
0.176471
0.371242
0.180392
0.143791
0.918954
0.216993
0.180392
0.196078
0.183007
0.637908
0.626144
0.413072
0.193464
0.366013
0.137255
0.362092
0.628758
0.915033
0.359477
0.142484
0.456209
0.24183
0.447059
0.636601
0.45098
0.129412
0.688889
0.917647
0.780392
0.636601
0.781699
0.295425
0.657516
0.261438
0.237908
0.183007
0.185621
0.330719
0.537255
0.247059
0.202614
0.543791
0.401307
0.644444
0.71634
0.164706
0.660131
0.50719
0.469281
0.675817
0.666667
0.760784
0.67451
0.60915
0.486275
0.339869
0.452288
0.551634
0.734641
0.737255
0.322876
0.780392
0.760784
0.470588
0.717647
0.660131
0.681046
0.819608
0.593464
0.563399
0.611765
0.780392
0.760784
0.79085
0.499346
0.478431
0.559477
0.780392
0.40915
0.560784
0.606536
0.424837
0.337255
0.32549
0.475817
0.780392
0.614379
0.436601
0.352941
0.695425
0.244444
0.546405
0.298039
0.671895
0.500654
0.766013
0.917647
0.917647
0.637908
0.356863
0.660131
0.207843
0.669281
0.249673
0.188235
0.211765
0.475817
0.12549
0.691503
0.398693
0.25098
0.894118
0.715033
0.456209
0.239216
0.644444
0.253595
0.324183
0.135948
0.436601
0.394771
0.65098
0.635294
0.403922
0.145098
0.260131
0.354248
0.0627451
0.637908
0.134641
0.351634
0.142484
0.917647
0.0627451
0.618301
0.185621
0.135948
0.0627451
0.478431
0.696732
0.917647
0.0627451
0.0732026
0.903268
0.639216
0.917647
0.0875817
0.355556
0.0627451
0.917647
0.0627451
0.917647
0.375163
0.921569
0.918954
0.635294
0.0745098
0.128105
0.917647
0.785621
0.645752
0.363399
0.360784
0.120261
0.63268
0.91634
0.411765
0.347712
0.627451
0.917647
0.364706
0.338562
0.384314
0.63268
0.402614
0.917647
0.265359
0.633987
0.137255
0.888889
0.64183
0.0823529
0.644444
0.918954
0.0771242
0.918954
0.0836601
0.917647
0.904575
0.917647
0.917647
0.615686
0.146405
0.915033
0.597386
0.915033
0.398693
0.896732
0.352941
0.177778
0.141176
0.849673
0.871895
0.0627451
0.622222
0.0627451
0.900654
0.141176
0.635294
0.636601
0.359477
0.912418
0.839216
0.0640523
0.350327
0.346405
0.0627451
0.0627451
0.0627451
0.598693
0.354248
0.354248
0.875817
0.142484
0.12549
0.356863
0.611765
0.360784
0.130719
0.915033
0.911111
0.860131
0.645752
0.630065
0.356863
0.35817
0.420915
0.205229
0.473203
0.183007
0.207843
0.418301
0.643137
0.423529
0.896732
0.635294
0.917647
0.917647
0.699346
0.917647
0.68366
0.901961
0.260131
0.271895
0.918954
0.901961
0.637908
0.198693
0.257516
0.202614
0.687582
0.917647
0.901961
0.488889
0.134641
0.360784
0.142484
0.637908
0.63268
0.644444
0.636601
0.133333
0.189542
0.198693
0.597386
0.138562
0.341176
0.346405
0.635294
0.34902
0.918954
0.0627451
0.363399
0.636601
0.637908
0.635294
0.636601
0.633987
0.354248
0.356863
0.134641
0.360784
0.189542
0.351634
0.265359
0.2
0.264052
0.260131
0.633987
0.703268
0.917647
0.704575
0.48366
0.207843
0.355556
0.256209
0.369935
0.150327
0.146405
0.197386
0.210458
0.91634
0.261438
0.401307
0.481046
0.205229
0.366013
0.147712
0.908497
0.649673
0.626144
0.615686
0.900654
0.0771242
0.633987
0.626144
0.899346
0.0810458
0.90719
0.920261
0.898039
0.0810458
0.347712
0.0679739
0.0640523
0.339869
0.633987
0.0771242
0.121569
0.63268
0.622222
0.681046
0.0627451
0.133333
0.360784
0.130719
0.918954
0.920261
0.635294
0.0823529
0.34902
0.920261
0.63268
0.0627451
0.635294
0.0627451
0.34902
0.0627451
0.0627451
0.075817
0.647059
0.0836601
0.335948
0.075817
0.339869
0.0797386
0.0797386
0.339869
0.917647
0.917647
0.368627
0.403922
0.917647
0.918954
0.640523
0.917647
0.396078
0.917647
0.636601
0.917647
0.917647
0.917647
0.351634
0.917647
0.917647
0.0627451
0.911111
0.917647
0.63268
0.352941
0.347712
0.0666667
0.0653595
0.630065
0.34902
0.643137
0.648366
0.0627451
0.913725
0.911111
0.265359
0.630065
0.913725
0.342484
0.34902
0.606536
0.917647
0.347712
0.917647
0.628758
0.890196
0.894118
0.909804
0.347712
0.623529
0.0627451
0.917647
0.347712
0.917647
0.0627451
0.347712
0.0627451
0.0627451
0.917647
0.63268
0.347712
0.917647
0.917647
0.917647
0.917647
0.917647
0.635294
0.593464
0.63268
0.0954248
0.383007
0.665359
0.917647
0.917647
0.917647
0.347712
0.917647
0.917647
0.917647
0.917647
0.0666667
0.917647
0.917647
0.917647
0.352941
0.63268
0.0627451
0.0627451
0.380392
0.347712
0.350327
0.63268
0.0653595
0.636601
0.917647
0.352941
0.352941
0.347712
0.069281
0.0980392
0.346405
0.0954248
0.581699
0.875817
0.346405
0.0627451
0.0627451
0.347712
0.305882
0.0627451
0.305882
0.305882
0.0627451
0.346405
0.322876
0.321569
0.341176
0.628758
0.322876
0.318954
0.627451
0.0627451
0.0627451
0.0627451
0.579085
0.0705882
0.637908
0.901961
0.352941
0.619608
0.635294
0.917647
0.386928
0.899346
0.647059
0.917647
0.917647
0.631373
0.630065
0.0627451
0.341176
0.639216
0.575163
0.920261
0.648366
0.64183
0.393464
0.0627451
0.347712
0.0627451
0.0627451
0.341176
0.0627451
0.579085
0.624837
0.597386
0.881046
0.133333
0.380392
0.602614
0.581699
0.0993464
0.0627451
0.405229
0.104575
0.177778
0.122876
0.222222
0.447059
0.147712
0.661438
0.369935
0.211765
0.405229
0.147712
0.654902
0.381699
0.39085
0.197386
0.63268
0.605229
0.338562
0.0627451
0.356863
0.908497
0.887582
0.362092
0.631373
0.14902
0.197386
0.368627
0.373856
0.918954
0.603922
0.201307
0.602614
0.623529
0.633987
0.265359
0.362092
0.635294
0.354248
0.351634
0.145098
0.690196
0.611765
0.64183
0.152941
0.146405
0.271895
0.135948
0.264052
0.210458
0.269281
0.135948
0.265359
0.630065
0.128105
0.239216
0.65098
0.227451
0.219608
0.168627
0.647059
0.606536
0.0627451
0.120261
0.647059
0.332026
0.613072
0.616993
0.879739
0.903268
0.635294
0.368627
0.878431
0.636601
0.352941
0.427451
0.637908
0.0627451
0.901961
0.616993
0.631373
0.0810458
0.34902
0.350327
0.633987
0.63268
0.356863
0.351634
0.635294
0.918954
0.606536
0.920261
0.369935
0.320261
0.635294
0.396078
0.623529
0.0980392
0.403922
0.63268
0.631373
0.648366
0.91634
0.355556
0.624837
0.377778
0.0627451
0.918954
0.0627451
0.34902
0.34902
0.0627451
0.620915
0.334641
0.347712
0.633987
0.63268
0.665359
0.647059
0.159477
0.203922
0.205229
0.20915
0.257516
0.0653595
0.0627451
0.25098
0.346405
0.616993
0.34902
0.920261
0.65098
0.457516
0.322876
0.350327
0.635294
0.403922
0.908497
0.633987
0.202614
0.918954
0.666667
0.895425
0.917647
0.861438
0.918954
0.576471
0.610458
0.0640523
0.350327
0.860131
0.894118
0.606536
0.891503
0.643137
0.636601
0.63268
0.89281
0.69281
0.718954
0.520261
0.711111
0.50719
0.730719
0.312418
0.440523
0.124183
0.639216
0.0732026
0.639216
0.135948
0.29281
0.128105
0.354248
0.168627
0.465359
0.156863
0.649673
0.377778
0.269281
0.12549
0.120261
0.482353
0.652288
0.738562
0.709804
0.780392
0.738562
0.694118
0.648366
0.712418
0.780392
0.543791
0.428758
0.60915
0.645752
0.445752
0.555556
0.780392
0.766013
0.780392
0.780392
0.467974
0.247059
0.419608
0.773856
0.479739
0.522876
0.542484
0.43268
0.414379
0.593464
0.593464
0.211765
0.780392
0.317647
0.54902
0.239216
0.509804
0.60915
0.754248
0.780392
0.662745
0.667974
0.15817
0.305882
0.117647
0.115033
0.352941
0.479739
0.359477
0.154248
0.636601
0.338562
0.630065
0.338562
0.554248
0.909804
0.173856
0.12549
0.23268
0.172549
0.254902
0.236601
0.419608
0.48366
0.315033
0.315033
0.54902
0.335948
0.143791
0.54902
0.14902
0.317647
0.515033
0.352941
0.315033
0.482353
0.317647
0.470588
0.189542
0.466667
0.300654
0.686275
0.14902
0.482353
0.20915
0.690196
0.695425
0.904575
0.909804
0.481046
0.231373
0.398693
0.12549
0.350327
0.884967
0.623529
0.894118
0.917647
0.917647
0.39085
0.458824
0.256209
0.917647
0.917647
0.917647
0.917647
0.206536
0.694118
0.610458
0.63268
0.393464
0.398693
0.201307
0.203922
0.696732
0.146405
0.913725
0.211765
0.484967
0.490196
0.695425
0.478431
0.917647
0.636601
0.915033
0.486275
0.698039
0.915033
0.206536
0.48366
0.275817
0.380392
0.351634
0.121569
0.169935
0.121569
0.265359
0.245752
0.205229
0.615686
0.416993
0.614379
0.402614
0.87451
0.875817
0.188235
0.467974
0.236601
0.240523
0.244444
0.266667
0.247059
0.275817
0.266667
0.201307
0.4
0.356863
0.478431
0.623529
0.691503
0.201307
0.613072
0.486275
0.494118
0.895425
0.618301
0.905882
0.440523
0.342484
0.198693
0.597386
0.096732
0.705882
0.160784
0.134641
0.261438
0.275817
0.691503
0.487582
0.269281
0.275817
0.912418
0.48366
0.267974
0.350327
0.411765
0.694118
0.447059
0.639216
0.40915
0.637908
0.917647
0.151634
0.265359
0.699346
0.48366
0.684967
0.918954
0.602614
0.917647
0.918954
0.879739
0.695425
0.677124
0.918954
0.917647
0.473203
0.652288
0.661438
0.918954
0.917647
0.900654
0.623529
0.888889
0.633987
0.63268
0.913725
0.898039
0.917647
0.917647
0.917647
0.917647
0.371242
0.900654
0.917647
0.915033
0.466667
0.636601
0.65098
0.91634
0.903268
0.917647
0.894118
0.917647
0.917647
0.661438
0.917647
0.913725
0.688889
0.917647
0.636601
0.622222
0.90719
0.631373
0.635294
0.615686
0.616993
0.654902
0.486275
0.47451
0.462745
0.613072
0.636601
0.176471
0.626144
0.20915
0.418301
0.381699
0.498039
0.40915
0.445752
0.713725
0.498039
0.624837
0.477124
0.917647
0.448366
0.917647
0.635294
0.648366
0.890196
0.888889
0.865359
0.918954
0.890196
0.381699
0.636601
0.894118
0.917647
0.917647
0.917647
0.917647
0.917647
0.917647
0.917647
0.917647
0.653595
0.436601
0.88366
0.207843
0.414379
0.137255
0.219608
0.24183
0.653595
0.267974
0.917647
0.917647
0.917647
0.91634
0.449673
0.141176
0.267974
0.703268
0.466667
0.895425
0.4
0.487582
0.487582
0.239216
0.258824
0.917647
0.380392
0.860131
0.647059
0.917647
0.635294
0.267974
0.482353
0.904575
0.266667
0.192157
0.265359
0.260131
0.448366
0.662745
0.454902
0.656209
0.601307
0.465359
0.243137
0.393464
0.135948
0.247059
0.244444
0.633987
0.211765
0.284967
0.180392
0.436601
0.222222
0.20915
0.173856
0.373856
0.258824
0.384314
0.332026
0.411765
0.539869
0.423529
0.539869
0.31634
0.207843
0.518954
0.329412
0.4
0.635294
0.426144
0.449673
0.29281
0.517647
0.471895
0.192157
0.244444
0.203922
0.261438
0.364706
0.25098
0.415686
0.626144
0.343791
0.633987
0.456209
0.411765
0.601307
0.648366
0.286275
0.607843
0.352941
0.205229
0.555556
0.201307
0.454902
0.355556
0.594771
0.267974
0.265359
0.363399
0.636601
0.644444
0.356863
0.192157
0.141176
0.91634
0.636601
0.871895
0.206536
0.915033
0.615686
0.633987
0.635294
0.593464
0.452288
0.180392
0.138562
0.196078
0.304575
0.686275
0.711111
0.202614
0.44183
0.265359
0.657516
0.715033
0.313725
0.198693
0.443137
0.126797
0.28366
0.363399
0.44183
0.780392
0.664052
0.671895
0.328105
0.203922
0.260131
0.547712
0.346405
0.699346
0.559477
0.359477
0.91634
0.873203
0.63268
0.145098
0.635294
0.201307
0.352941
0.364706
0.63268
0.366013
0.262745
0.207843
0.267974
0.509804
0.615686
0.265359
0.196078
0.351634
0.146405
0.133333
0.198693
0.257516
0.198693
0.895425
0.673203
0.445752
0.636601
0.198693
0.333333
0.338562
0.722876
0.396078
0.484967
0.186928
0.639216
0.677124
0.636601
0.917647
0.917647
0.918954
0.917647
0.67451
0.917647
0.917647
0.917647
0.383007
0.675817
0.701961
0.389542
0.908497
0.494118
0.664052
0.917647
0.418301
0.908497
0.917647
0.917647
0.2
0.917647
0.664052
0.917647
0.917647
0.661438
0.661438
0.637908
0.664052
0.917647
0.423529
0.473203
0.261438
0.695425
0.262745
0.334641
0.194771
0.473203
0.486275
0.31634
0.254902
0.911111
0.635294
0.640523
0.411765
0.198693
0.0849673
0.363399
0.141176
0.539869
0.538562
0.359477
0.695425
0.0836601
0.253595
0.0849673
0.253595
0.137255
0.198693
0.267974
0.203922
0.473203
0.265359
0.917647
0.637908
0.917647
0.912418
0.269281
0.901961
0.687582
0.917647
0.917647
0.686275
0.900654
0.45098
0.487582
0.470588
0.900654
0.669281
0.613072
0.917647
0.91634
0.917647
0.917647
0.917647
0.917647
0.917647
0.917647
0.917647
0.917647
0.256209
0.645752
0.660131
0.91634
0.639216
0.917647
0.917647
0.917647
0.917647
0.917647
0.917647
0.48366
0.635294
0.68366
0.465359
0.688889
0.606536
0.91634
0.645752
0.257516
0.475817
0.256209
0.265359
0.206536
0.154248
0.211765
0.261438
0.267974
0.554248
0.484967
0.298039
0.164706
0.470588
0.419608
0.213072
0.635294
0.156863
0.420915
0.267974
0.635294
0.90719
0.90719
0.675817
0.917647
0.45098
0.467974
0.45098
0.915033
0.681046
0.679739
0.675817
0.443137
0.449673
0.700654
0.247059
0.917647
0.890196
0.917647
0.917647
0.917647
0.44183
0.45098
0.91634
0.915033
0.15817
0.411765
0.380392
0.427451
0.105882
0.143791
0.172549
0.264052
0.338562
0.754248
0.521569
0.742484
0.179085
0.644444
0.742484
0.754248
0.780392
0.261438
0.657516
0.264052
0.628758
0.551634
0.754248
0.69281
0.780392
0.784314
0.780392
0.780392
0.563399
0.333333
0.155556
0.203922
0.470588
0.780392