# vtk DataFile Version 1.0
Unstructured Grid Example
ASCII

DATASET UNSTRUCTURED_GRID
POINTS 536 float
223 406 0
158 312 0
54 492 0
72 611 0
259 374 0
248 338 0
383 276 0
347 179 0
229 209 0
273 363 0
308 188 0
122 476 0
112 494 0
47 565 0
51 584 0
62 611 0
37 611 0
78 611 0
97 611 0
138 611 0
375 293 0
401 388 0
338 611 0
486 611 0
494 611 0
637 611 0
422 274 0
370 253 0
350 256 0
495 163 0
725 26 0
731 1 0
746 1 0
0 107 0
0 169 0
0 240 0
153 317 0
140 274 0
47 1 0
157 256 0
171 241 0
179 235 0
206 318 0
168 319 0
161 323 0
221 331 0
248 383 0
252 325 0
239 384 0
168 428 0
167 448 0
160 427 0
149 426 0
117 410 0
96 408 0
80 376 0
109 410 0
63 435 0
48 537 0
54 538 0
81 520 0
68 548 0
63 549 0
50 542 0
48 572 0
0 583 0
47 611 0
52 611 0
68 611 0
57 611 0
149 611 0
134 611 0
163 611 0
174 611 0
197 611 0
241 611 0
109 486 0
94 513 0
90 516 0
154 477 0
93 478 0
155 484 0
156 465 0
327 333 0
341 316 0
345 335 0
352 343 0
337 343 0
293 346 0
279 359 0
291 611 0
302 611 0
327 611 0
332 611 0
344 350 0
500 611 0
356 611 0
509 611 0
714 611 0
735 611 0
754 611 0
709 611 0
452 611 0
368 611 0
592 611 0
762 374 0
762 569 0
762 606 0
470 308 0
461 301 0
471 239 0
456 252 0
453 283 0
441 284 0
392 288 0
392 279 0
382 293 0
327 235 0
305 235 0
356 260 0
379 272 0
513 210 0
503 216 0
326 180 0
334 1 0
362 178 0
390 171 0
656 1 0
536 155 0
516 163 0
715 53 0
687 46 0
739 32 0
702 24 0
12 1 0
30 1 0
94 1 0
0 4 0
0 17 0
0 42 0
0 62 0
0 300 0
104 319 0
110 324 0
109 310 0
119 303 0
127 298 0
136 308 0
145 311 0
153 324 0
151 323 0
166 310 0
135 280 0
127 283 0
122 292 0
136 1 0
144 268 0
149 261 0
166 247 0
197 1 0
193 225 0
186 231 0
207 228 0
202 222 0
210 217 0
262 199 0
264 1 0
270 196 0
251 204 0
236 206 0
220 216 0
231 316 0
237 324 0
261 326 0
279 326 0
269 326 0
244 326 0
213 320 0
222 319 0
196 318 0
180 316 0
188 317 0
175 320 0
185 324 0
200 328 0
189 412 0
177 412 0
230 398 0
229 331 0
211 330 0
242 335 0
255 340 0
263 338 0
263 366 0
249 373 0
237 391 0
213 414 0
219 421 0
233 413 0
264 440 0
246 425 0
232 422 0
178 439 0
179 431 0
202 413 0
169 437 0
144 420 0
173 445 0
159 456 0
136 420 0
127 418 0
120 419 0
97 417 0
104 414 0
114 416 0
123 408 0
113 405 0
104 404 0
100 328 0
99 337 0
95 348 0
77 399 0
86 366 0
94 356 0
0 331 0
0 383 0
76 390 0
0 422 0
70 407 0
71 416 0
70 426 0
62 448 0
60 459 0
0 448 0
0 472 0
0 491 0
53 501 0
55 506 0
55 486 0
62 476 0
82 481 0
86 476 0
88 482 0
97 500 0
96 483 0
95 505 0
80 528 0
86 519 0
90 509 0
76 533 0
71 534 0
67 540 0
55 528 0
55 523 0
53 511 0
52 518 0
0 512 0
49 528 0
53 533 0
0 560 0
0 542 0
46 579 0
42 611 0
0 597 0
0 606 0
9 611 0
2 611 0
14 611 0
19 611 0
23 611 0
30 611 0
54 576 0
49 590 0
46 596 0
84 611 0
90 611 0
58 569 0
63 556 0
59 563 0
56 556 0
47 548 0
53 548 0
65 544 0
72 540 0
158 611 0
167 611 0
188 611 0
193 611 0
184 611 0
154 611 0
121 611 0
103 611 0
109 611 0
125 611 0
130 611 0
178 611 0
231 611 0
225 611 0
246 611 0
252 611 0
265 611 0
261 611 0
236 611 0
220 611 0
213 611 0
201 611 0
206 611 0
256 611 0
278 611 0
271 611 0
144 611 0
180 493 0
117 488 0
117 611 0
113 611 0
103 499 0
101 504 0
98 510 0
106 494 0
104 488 0
109 498 0
112 489 0
113 477 0
103 484 0
101 477 0
107 476 0
132 476 0
140 476 0
151 460 0
148 476 0
149 481 0
160 480 0
167 487 0
159 474 0
152 471 0
286 331 0
301 332 0
284 344 0
331 340 0
309 335 0
318 333 0
336 323 0
340 332 0
346 311 0
362 354 0
358 347 0
343 341 0
406 611 0
424 611 0
430 410 0
475 611 0
466 611 0
429 611 0
372 611 0
396 611 0
377 366 0
286 356 0
350 354 0
362 362 0
291 454 0
318 611 0
323 611 0
361 611 0
377 611 0
350 611 0
314 611 0
306 611 0
297 611 0
284 611 0
310 611 0
342 611 0
346 611 0
419 611 0
401 611 0
440 611 0
444 611 0
448 611 0
459 611 0
481 611 0
436 611 0
392 611 0
381 611 0
388 611 0
413 611 0
471 611 0
555 611 0
567 611 0
580 611 0
663 611 0
657 611 0
559 611 0
548 611 0
543 611 0
563 611 0
608 611 0
642 611 0
648 611 0
739 611 0
719 611 0
731 611 0
744 611 0
749 611 0
759 611 0
701 611 0
695 611 0
691 611 0
681 611 0
685 611 0
705 611 0
724 611 0
653 611 0
674 611 0
632 611 0
626 611 0
621 611 0
617 611 0
604 611 0
598 611 0
523 611 0
572 611 0
576 611 0
612 611 0
518 611 0
505 611 0
490 611 0
485 322 0
513 611 0
529 611 0
586 611 0
537 611 0
533 611 0
669 611 0
762 596 0
762 547 0
762 495 0
762 297 0
469 299 0
454 299 0
449 293 0
456 289 0
463 293 0
466 246 0
482 236 0
488 229 0
448 252 0
452 259 0
447 274 0
416 269 0
439 267 0
444 263 0
396 262 0
386 262 0
402 268 0
388 274 0
431 277 0
440 273 0
447 280 0
443 290 0
434 285 0
400 282 0
384 286 0
374 267 0
379 257 0
364 251 0
368 266 0
368 299 0
360 306 0
353 309 0
352 301 0
343 259 0
359 268 0
362 260 0
332 238 0
327 243 0
319 243 0
316 235 0
321 232 0
338 237 0
345 243 0
338 247 0
344 250 0
367 244 0
359 249 0
352 244 0
350 236 0
521 189 0
525 181 0
529 172 0
335 177 0
519 200 0
497 226 0
327 228 0
310 226 0
301 223 0
283 190 0
297 187 0
317 182 0
466 163 0
446 164 0
414 168 0
405 1 0
483 1 0
485 162 0
525 163 0
504 163 0
535 164 0
544 160 0
550 151 0
562 143 0
555 1 0
616 1 0
706 1 0
718 1 0
707 18 0
689 1 0
676 1 0
694 33 0
687 38 0
695 45 0
703 50 0
710 44 0
721 19 0
714 18 0
723 53 0
762 98 0
762 218 0
762 143 0
762 70 0
762 52 0
762 36 0
740 40 0
733 48 0
732 28 0
759 1 0
762 24 0
762 9 0

CELLS 865 3460
3 51 52 206
3 173 175 192
3 259 13 261
3 151 1 37
3 281 59 282
3 89 356 9
3 43 44 1
3 188 190 194
3 184 187 185
3 453 115 6
3 158 42 179
3 469 28 119
3 37 156 151
3 474 336 174
3 367 359 91
3 193 194 191
3 155 33 136
3 464 461 120
3 52 51 50
3 328 52 208
3 318 76 321
3 208 52 50
3 246 250 60
3 261 14 272
3 277 61 18
3 68 15 272
3 269 273 270
3 3 14 271
3 17 3 271
3 282 61 62
3 308 309 359
3 47 173 191
3 112 457 456
3 451 453 120
3 203 49 186
3 352 348 349
3 377 102 349
3 425 21 108
3 442 490 436
3 116 114 355
3 471 27 464
3 450 481 126
3 7 125 484
3 120 6 20
3 489 121 122
3 125 7 488
3 32 132 532
3 488 7 123
3 506 525 489
3 532 530 531
3 491 7 484
3 40 158 157
3 157 35 34
3 218 220 224
3 223 215 216
3 147 145 146
3 42 158 41
3 444 498 110
3 156 39 151
3 34 33 41
3 41 40 34
3 46 48 194
3 140 136 33
3 176 47 5
3 189 42 177
3 161 160 162
3 180 181 183
3 44 36 1
3 189 45 48
3 76 322 312
3 44 182 183
3 188 171 172
3 194 4 46
3 4 9 199
3 170 118 171
3 460 20 6
3 188 194 45
3 187 0 204
3 183 184 186
3 207 202 311
3 326 327 330
3 203 185 204
3 49 205 51
3 209 206 52
3 186 149 44
3 210 211 215
3 150 219 143
3 54 226 217
3 44 149 36
3 213 214 212
3 143 144 145
3 211 214 53
3 222 55 224
3 224 141 218
3 226 55 217
3 248 240 243
3 13 64 261
3 254 237 60
3 249 250 246
3 294 317 71
3 275 276 277
3 332 317 320
3 279 62 277
3 283 250 249
3 259 260 280
3 58 59 63
3 279 277 278
3 67 66 273
3 69 67 273
3 3 68 14
3 15 69 272
3 310 19 317
3 292 291 61
3 317 77 245
3 321 12 318
3 244 242 80
3 322 11 312
3 290 313 246
3 243 245 248
3 237 240 248
3 311 197 201
3 311 73 285
3 238 239 240
3 213 54 217
3 332 311 317
3 311 72 284
3 207 311 332
3 328 11 211
3 341 83 340
3 346 86 94
3 340 84 341
3 469 119 470
3 343 467 84
3 193 9 4
3 467 466 86
3 356 359 9
3 342 87 338
3 344 355 358
3 192 175 174
3 338 87 94
3 338 94 356
3 358 355 21
3 207 50 205
3 200 198 195
3 199 200 4
3 368 308 359
3 359 93 92
3 356 94 357
3 346 85 86
3 424 23 349
3 22 93 359
3 95 24 349
3 434 388 389
3 106 98 101
3 425 104 428
3 383 347 349
3 359 199 9
3 423 95 349
3 432 99 106
3 432 397 99
3 437 108 21
3 425 434 416
3 355 437 21
3 437 440 109
3 481 463 482
3 121 435 425
3 447 444 448
3 436 108 109
3 449 444 445
3 440 441 436
3 448 449 446
3 438 439 437
3 460 114 116
3 458 454 113
3 459 115 452
3 114 460 115
3 355 344 345
3 345 465 116
3 476 117 474
3 476 492 491
3 171 118 173
3 478 479 477
3 465 468 470
3 28 482 119
3 464 120 20
3 453 450 452
3 490 121 425
3 518 131 517
3 497 122 443
3 29 485 489
3 167 159 166
3 495 494 166
3 502 501 29
3 110 441 444
3 445 111 441
3 124 126 125
3 497 502 122
3 511 512 522
3 508 128 501
3 501 497 498
3 29 504 485
3 504 128 129
3 506 508 525
3 532 31 32
3 526 131 519
3 520 30 531
3 533 535 32
3 523 130 520
3 516 514 133
3 521 31 532
3 135 38 139
3 155 160 33
3 134 138 137
3 134 135 138
3 135 139 138
3 38 140 139
3 38 136 140
3 144 142 141
3 57 231 233
3 218 142 143
3 141 35 144
3 144 143 142
3 150 149 223
3 37 152 153
3 145 147 143
3 154 145 144
3 148 1 36
3 154 146 145
3 152 1 148
3 152 147 146
3 148 36 150
3 149 150 36
3 147 152 148
3 223 149 215
3 44 183 186
3 147 150 143
3 147 148 150
3 158 180 39
3 43 1 151
3 153 152 146
3 37 1 152
3 35 153 154
3 35 157 153
3 35 154 144
3 153 146 154
3 160 41 33
3 153 156 37
3 157 39 156
3 153 157 156
3 34 40 157
3 157 158 39
3 40 41 158
3 8 164 159
3 164 163 160
3 162 42 41
3 41 161 162
3 41 160 161
3 163 162 160
3 170 168 118
3 155 164 160
3 164 162 163
3 159 164 155
3 170 162 164
3 493 165 167
3 169 159 165
3 488 496 124
3 167 165 159
3 494 167 166
3 10 492 493
3 169 168 170
3 165 493 168
3 168 169 165
3 8 159 169
3 8 170 164
3 8 169 170
3 162 171 42
3 162 170 171
3 178 171 188
3 171 47 176
3 171 173 47
3 192 174 337
3 474 174 118
3 175 118 174
3 335 337 174
3 173 118 175
3 190 176 5
3 172 171 176
3 189 177 45
3 42 171 178
3 177 178 45
3 177 42 178
3 184 179 42
3 181 158 179
3 151 180 182
3 151 39 180
3 43 151 182
3 180 158 181
3 43 182 44
3 181 179 183
3 185 186 184
3 182 180 183
3 187 184 189
3 183 179 184
3 204 185 187
3 49 51 186
3 206 186 51
3 206 215 186
3 195 187 48
3 195 198 187
3 178 188 45
3 172 176 190
3 187 189 48
3 184 42 189
3 194 190 5
3 188 172 190
3 9 193 192
3 5 47 191
3 9 192 89
3 191 173 192
3 194 193 4
3 191 192 193
3 45 194 48
3 5 191 194
3 46 195 48
3 46 200 195
3 203 204 197
3 302 311 75
3 0 197 196
3 0 187 198
3 4 200 46
3 197 0 198
3 349 359 21
3 311 201 199
3 201 198 200
3 199 201 200
3 197 198 201
3 205 202 207
3 203 197 202
3 205 203 202
3 186 185 203
3 196 204 0
3 196 197 204
3 51 205 50
3 49 203 205
3 328 209 52
3 215 149 186
3 197 311 202
3 207 332 333
3 207 333 50
3 82 334 328
3 211 209 328
3 210 215 209
3 325 324 212
3 211 53 215
3 209 211 210
3 212 231 230
3 11 322 325
3 229 228 221
3 54 213 212
3 214 211 212
3 56 214 213
3 56 53 214
3 209 215 206
3 53 56 216
3 53 216 215
3 56 213 217
3 56 217 216
3 54 221 226
3 220 218 219
3 141 142 218
3 143 219 218
3 220 222 224
3 150 220 219
3 223 217 222
3 212 229 54
3 228 227 225
3 223 222 220
3 217 55 222
3 150 223 220
3 216 217 223
3 225 224 55
3 228 225 226
3 228 226 221
3 225 55 226
3 233 227 57
3 54 229 221
3 57 227 228
3 230 229 212
3 57 228 229
3 324 241 212
3 57 229 230
3 233 231 232
3 57 230 231
3 241 232 231
3 231 212 241
3 236 235 2
3 232 234 233
3 238 235 234
3 254 236 237
3 2 240 237
3 255 256 254
3 236 2 237
3 235 238 2
3 234 232 238
3 241 239 232
3 238 232 239
3 242 240 241
3 2 238 240
3 242 241 80
3 240 239 241
3 244 243 242
3 243 240 242
3 316 245 243
3 248 78 247
3 324 323 244
3 319 318 243
3 315 316 243
3 77 78 248
3 247 246 60
3 78 77 246
3 248 247 60
3 78 246 247
3 77 248 245
3 60 237 248
3 283 249 246
3 246 77 293
3 252 250 251
3 252 253 250
3 282 251 61
3 59 258 251
3 58 257 258
3 253 60 250
3 258 257 252
3 254 60 253
3 255 254 253
3 256 236 254
3 252 257 253
3 257 256 255
3 236 256 235
3 253 257 255
3 58 260 257
3 251 258 252
3 59 58 258
3 280 63 281
3 257 260 256
3 58 63 280
3 259 261 65
3 64 271 261
3 273 262 16
3 261 269 65
3 267 265 263
3 263 265 264
3 265 266 264
3 65 268 263
3 263 268 267
3 65 269 268
3 261 273 269
3 261 272 273
3 261 271 14
3 64 13 276
3 68 272 14
3 66 262 273
3 270 273 16
3 272 69 273
3 271 276 17
3 275 277 18
3 274 17 276
3 274 276 275
3 271 64 276
3 278 277 276
3 62 61 277
3 13 278 276
3 13 279 278
3 280 279 13
3 281 62 279
3 259 280 13
3 260 58 280
3 280 281 279
3 63 59 281
3 281 282 62
3 59 251 282
3 251 283 61
3 251 250 283
3 289 311 284
3 311 285 72
3 311 286 288
3 311 287 286
3 311 288 295
3 310 317 70
3 70 311 289
3 314 61 283
3 18 61 291
3 314 292 61
3 246 293 290
3 77 294 293
3 77 317 294
3 311 295 73
3 311 199 359
3 303 311 297
3 75 311 298
3 298 311 299
3 301 307 359
3 307 311 359
3 296 297 311
3 304 311 303
3 306 311 304
3 287 311 74
3 74 311 305
3 305 311 306
3 299 311 307
3 309 300 359
3 300 301 359
3 19 71 317
3 296 311 302
3 81 79 331
3 326 312 11
3 81 12 312
3 246 313 283
3 313 314 283
3 244 319 243
3 316 317 245
3 318 320 315
3 320 81 332
3 315 320 316
3 311 70 317
3 320 318 12
3 315 243 318
3 323 319 244
3 76 318 319
3 316 320 317
3 12 81 320
3 312 321 76
3 312 12 321
3 323 325 76
3 325 212 211
3 319 323 76
3 244 80 324
3 323 324 325
3 80 241 324
3 11 325 211
3 322 76 325
3 327 326 328
3 330 81 312
3 334 327 328
3 329 79 330
3 82 328 208
3 326 11 328
3 334 329 327
3 79 81 330
3 326 330 312
3 327 329 330
3 334 333 79
3 333 208 50
3 331 332 81
3 331 333 332
3 79 333 331
3 82 208 333
3 333 334 82
3 79 329 334
3 336 335 174
3 337 89 192
3 338 339 340
3 88 335 336
3 88 337 335
3 88 356 337
3 339 338 88
3 83 342 338
3 336 339 88
3 336 84 340
3 338 340 83
3 339 336 340
3 85 342 84
3 342 83 341
3 84 342 341
3 85 346 342
3 465 466 468
3 84 336 474
3 86 345 357
3 345 116 355
3 357 345 344
3 466 467 468
3 87 346 94
3 87 342 346
3 362 96 359
3 353 103 359
3 425 349 21
3 426 97 349
3 378 350 349
3 384 351 349
3 379 352 349
3 363 353 359
3 373 354 349
3 457 355 114
3 21 359 358
3 337 356 89
3 88 338 356
3 356 357 359
3 94 86 357
3 357 358 359
3 357 344 358
3 381 359 349
3 370 22 359
3 359 361 360
3 359 92 361
3 103 362 359
3 381 363 359
3 96 364 359
3 359 360 365
3 359 366 91
3 90 359 367
3 90 368 359
3 359 369 366
3 359 365 369
3 371 370 359
3 364 371 359
3 348 372 349
3 347 373 349
3 375 374 349
3 376 375 349
3 102 376 349
3 351 377 349
3 23 378 349
3 374 379 349
3 354 380 349
3 382 381 349
3 380 382 349
3 372 383 349
3 350 384 349
3 390 385 349
3 419 386 349
3 428 387 349
3 410 434 389
3 393 390 349
3 385 391 349
3 391 392 349
3 386 393 349
3 434 394 416
3 434 433 411
3 25 434 395
3 432 401 400
3 106 398 98
3 106 99 399
3 432 400 397
3 100 401 432
3 100 107 402
3 433 403 404
3 433 404 405
3 433 407 406
3 433 405 407
3 433 408 403
3 433 101 408
3 106 409 398
3 106 399 409
3 395 434 396
3 396 434 410
3 433 406 411
3 434 412 413
3 434 413 414
3 434 414 415
3 434 415 421
3 425 416 417
3 425 417 104
3 427 418 349
3 420 419 349
3 387 420 349
3 434 421 394
3 418 422 349
3 97 423 349
3 24 424 349
3 436 425 108
3 105 434 425
3 422 426 349
3 430 427 349
3 425 428 349
3 392 429 349
3 429 430 349
3 434 431 388
3 434 411 431
3 107 100 432
3 106 101 433
3 412 434 25
3 105 425 435
3 441 110 442
3 442 443 490
3 108 437 109
3 457 113 456
3 439 438 112
3 437 355 457
3 437 439 440
3 440 436 109
3 112 440 439
3 112 445 441
3 112 441 440
3 111 444 441
3 441 442 436
3 490 122 121
3 110 443 442
3 110 497 443
3 450 444 447
3 499 498 444
3 446 445 112
3 444 111 445
3 456 446 112
3 454 26 448
3 459 447 26
3 450 126 499
3 113 454 455
3 26 447 448
3 446 449 445
3 448 444 449
3 452 450 447
3 462 481 450
3 461 451 120
3 462 450 451
3 459 452 447
3 115 453 452
3 120 453 6
3 451 450 453
3 455 454 448
3 113 457 458
3 446 455 448
3 446 456 455
3 438 457 112
3 113 455 456
3 437 457 438
3 458 26 454
3 114 458 457
3 114 459 458
3 458 459 26
3 114 115 459
3 20 460 116
3 6 115 460
3 27 461 464
3 27 462 461
3 461 462 451
3 27 481 462
3 479 473 472
3 483 478 484
3 465 470 20
3 471 463 27
3 116 465 20
3 345 86 466
3 345 466 465
3 86 85 467
3 84 467 85
3 470 119 471
3 343 468 467
3 343 84 469
3 343 469 468
3 473 117 472
3 20 470 464
3 468 469 470
3 470 471 464
3 119 482 471
3 477 479 472
3 491 123 7
3 84 474 469
3 474 117 473
3 475 474 118
3 473 469 474
3 492 476 475
3 476 474 475
3 118 492 475
3 10 496 491
3 484 477 491
3 472 117 491
3 484 478 477
3 480 469 479
3 480 479 478
3 469 473 479
3 483 480 478
3 28 469 480
3 126 481 125
3 27 463 481
3 471 482 463
3 28 480 483
3 482 483 481
3 482 28 483
3 481 484 125
3 481 483 484
3 122 29 489
3 503 128 505
3 506 486 487
3 485 504 486
3 506 487 505
3 486 129 487
3 496 488 123
3 124 125 488
3 486 489 485
3 435 121 489
3 436 490 425
3 443 122 490
3 472 491 477
3 117 476 491
3 493 492 118
3 10 491 492
3 168 493 118
3 167 494 493
3 496 495 166
3 495 493 494
3 10 495 496
3 10 493 495
3 124 496 166
3 123 491 496
3 498 497 110
3 498 500 501
3 126 500 499
3 499 500 498
3 450 499 444
3 126 124 500
3 501 128 504
3 509 508 501
3 122 502 29
3 497 501 502
3 129 503 487
3 129 128 503
3 486 504 129
3 29 501 504
3 489 486 506
3 487 503 505
3 128 506 505
3 507 508 506
3 510 508 509
3 506 128 507
3 130 526 519
3 507 128 508
3 510 131 508
3 127 131 510
3 514 511 513
3 521 512 31
3 133 513 522
3 133 514 513
3 516 515 514
3 127 515 517
3 30 520 133
3 517 515 516
3 518 517 516
3 131 127 517
3 133 520 516
3 519 131 518
3 516 520 518
3 130 524 526
3 519 520 130
3 519 518 520
3 133 522 30
3 522 512 521
3 30 522 521
3 513 511 522
3 532 531 30
3 524 130 523
3 526 508 131
3 435 489 525
3 525 508 526
3 524 523 527
3 531 523 520
3 528 530 529
3 529 530 132
3 528 527 531
3 528 531 530
3 527 523 531
3 530 532 132
3 30 521 532
3 534 132 32
3 529 132 534
3 534 32 535

CELL_TYPES 865
5 5 5 5 5 5 5 5 5 5 5 5 5 5 5 5 5 5 5 5 5 5 5 5 5 5 5 5 5 5 5 5 5 5 5 5 5 5 5 5 5 5 5 5 5 5 5 5 5 5 5 5 5 5 5 5 5 5 5 5 5 5 5 5 5 5 5 5 5 5 5 5 5 5 5 5 5 5 5 5 5 5 5 5 5 5 5 5 5 5 5 5 5 5 5 5 5 5 5 5 5 5 5 5 5 5 5 5 5 5 5 5 5 5 5 5 5 5 5 5 5 5 5 5 5 5 5 5 5 5 5 5 5 5 5 5 5 5 5 5 5 5 5 5 5 5 5 5 5 5 5 5 5 5 5 5 5 5 5 5 5 5 5 5 5 5 5 5 5 5 5 5 5 5 5 5 5 5 5 5 5 5 5 5 5 5 5 5 5 5 5 5 5 5 5 5 5 5 5 5 5 5 5 5 5 5 5 5 5 5 5 5 5 5 5 5 5 5 5 5 5 5 5 5 5 5 5 5 5 5 5 5 5 5 5 5 5 5 5 5 5 5 5 5 5 5 5 5 5 5 5 5 5 5 5 5 5 5 5 5 5 5 5 5 5 5 5 5 5 5 5 5 5 5 5 5 5 5 5 5 5 5 5 5 5 5 5 5 5 5 5 5 5 5 5 5 5 5 5 5 5 5 5 5 5 5 5 5 5 5 5 5 5 5 5 5 5 5 5 5 5 5 5 5 5 5 5 5 5 5 5 5 5 5 5 5 5 5 5 5 5 5 5 5 5 5 5 5 5 5 5 5 5 5 5 5 5 5 5 5 5 5 5 5 5 5 5 5 5 5 5 5 5 5 5 5 5 5 5 5 5 5 5 5 5 5 5 5 5 5 5 5 5 5 5 5 5 5 5 5 5 5 5 5 5 5 5 5 5 5 5 5 5 5 5 5 5 5 5 5 5 5 5 5 5 5 5 5 5 5 5 5 5 5 5 5 5 5 5 5 5 5 5 5 5 5 5 5 5 5 5 5 5 5 5 5 5 5 5 5 5 5 5 5 5 5 5 5 5 5 5 5 5 5 5 5 5 5 5 5 5 5 5 5 5 5 5 5 5 5 5 5 5 5 5 5 5 5 5 5 5 5 5 5 5 5 5 5 5 5 5 5 5 5 5 5 5 5 5 5 5 5 5 5 5 5 5 5 5 5 5 5 5 5 5 5 5 5 5 5 5 5 5 5 5 5 5 5 5 5 5 5 5 5 5 5 5 5 5 5 5 5 5 5 5 5 5 5 5 5 5 5 5 5 5 5 5 5 5 5 5 5 5 5 5 5 5 5 5 5 5 5 5 5 5 5 5 5 5 5 5 5 5 5 5 5 5 5 5 5 5 5 5 5 5 5 5 5 5 5 5 5 5 5 5 5 5 5 5 5 5 5 5 5 5 5 5 5 5 5 5 5 5 5 5 5 5 5 5 5 5 5 5 5 5 5 5 5 5 5 5 5 5 5 5 5 5 5 5 5 5 5 5 5 5 5 5 5 5 5 5 5 5 5 5 5 5 5 5 5 5 5 5 5 5 5 5 5 5 5 5 5 5 5 5 5 5 5 5 5 5 5 5 5 5 5 5 5 5 5 5 5 5 5 5 5 5 5 5 5 5 5 5 5 5 5 5 5 5 5 5 5 5 5 5 5 5 5 5 5 5 5 5 5 5 5 5 5 5 5 5 5 5 5 5 5 5 5 5 5 5 5 5 5 5 5 5 5 5 5 5 5 5 5 5 5 5 5 5 5 5 5 5 5 5 5 5 5 5 5 5 5 5 5 5 5 5 5 5 5 5 5 5 5 5 5 5 5 5 5 5 5 5 5 5 5 5 5 5 5 5 5 5 5 5 5 5 5 5 5 5 5 5 5 5 5 5 5 5 5 5 5 5 5 5 5 5 5 5 5 5 5 5 5 5 

CELL_DATA 865
COLOR_SCALARS ColorSpace 1
0.393464
0.381699
0.623529
0.43268
0.392157
0.386928
0.385621
0.393464
0.384314
0.392157
0.385621
0.398693
0.431373
0.4
0.788235
0.398693
0.921569
0.396078
0.393464
0.394771
0.396078
0.394771
0.392157
0.45098
0.564706
0.738562
0.769935
0.573856
0.743791
0.392157
0.788235
0.4
0.389542
0.427451
0.392157
0.743791
0.743791
0.405229
0.397386
0.458824
0.39085
0.394771
0.396078
0.39085
0.393464
0.396078
0.568627
0.393464
0.563399
0.394771
0.39085
0.393464
0.743791
0.584314
0.397386
0.384314
0.385621
0.388235
0.407843
0.737255
0.564706
0.389542
0.921569
0.447059
0.39085
0.420915
0.396078
0.393464
0.4
0.422222
0.396078
0.385621
0.392157
0.386928
0.397386
0.394771
0.398693
0.410458
0.392157
0.397386
0.401307
0.40915
0.393464
0.394771
0.392157
0.393464
0.394771
0.394771
0.392157
0.4
0.508497
0.4
0.577778
0.760784
0.403922
0.398693
0.448366
0.401307
0.389542
0.752941
0.568627
0.419608
0.39085
0.384314
0.856209
0.444444
0.392157
0.76732
0.769935
0.751634
0.738562
0.752941
0.743791
0.396078
0.407843
0.427451
0.424837
0.741176
0.393464
0.401307
0.415686
0.737255
0.401307
0.398693
0.389542
0.737255
0.394771
0.393464
0.401307
0.39085
0.397386
0.396078
0.39085
0.396078
0.414379
0.43268
0.397386
0.386928
0.39085
0.397386
0.394771
0.39085
0.406536
0.393464
0.388235
0.788235
0.788235
0.39085
0.389542
0.743791
0.788235
0.743791
0.921569
0.921569
0.756863
0.743791
0.426144
0.743791
0.921569
0.921569
0.392157
0.756863
0.396078
0.386928
0.407843
0.579085
0.388235
0.393464
0.388235
0.398693
0.394771
0.397386
0.458824
0.4
0.406536
0.436601
0.398693
0.423529
0.410458
0.397386
0.394771
0.4
0.4
0.410458
0.39085
0.397386
0.401307
0.389542
0.392157
0.394771
0.746405
0.564706
0.575163
0.388235
0.388235
0.576471
0.389542
0.746405
0.583007
0.564706
0.386928
0.397386
0.568627
0.746405
0.579085
0.385621
0.921569
0.440523
0.560784
0.563399
0.921569
0.773856
0.921569
0.921569
0.921569
0.921569
0.921569
0.802614
0.637908
0.526797
0.861438
0.627451
0.396078
0.526797
0.388235
0.496732
0.39085
0.377778
0.389542
0.383007
0.389542
0.393464
0.383007
0.396078
0.392157
0.39085
0.386928
0.396078
0.392157
0.49281
0.423529
0.664052
0.673203
0.67451
0.484967
0.589542
0.530719
0.4
0.498039
0.571242
0.397386
0.386928
0.579085
0.440523
0.388235
0.384314
0.411765
0.428758
0.398693
0.610458
0.413072
0.75817
0.40915
0.397386
0.564706
0.56732
0.568627
0.562092
0.397386
0.393464
0.397386
0.389542
0.563399
0.405229
0.389542
0.396078
0.396078
0.384314
0.44183
0.398693
0.4
0.405229
0.394771
0.414379
0.385621
0.44183
0.43268
0.394771
0.39085
0.39085
0.386928
0.386928
0.388235
0.398693
0.403922
0.392157
0.393464
0.385621
0.39085
0.386928
0.393464
0.388235
0.385621
0.405229
0.392157
0.392157
0.393464
0.39085
0.389542
0.39085
0.433987
0.389542
0.394771
0.402614
0.386928
0.39085
0.405229
0.386928
0.392157
0.401307
0.393464
0.403922
0.402614
0.386928
0.385621
0.445752
0.737255
0.430065
0.389542
0.388235
0.426144
0.435294
0.375163
0.39085
0.383007
0.423529
0.405229
0.424837
0.392157
0.386928
0.418301
0.449673
0.393464
0.393464
0.394771
0.393464
0.416993
0.4
0.403922
0.4
0.396078
0.393464
0.389542
0.397386
0.393464
0.396078
0.40915
0.439216
0.4
0.398693
0.4
0.4
0.396078
0.398693
0.398693
0.396078
0.396078
0.396078
0.407843
0.701961
0.40915
0.564706
0.393464
0.389542
0.4
0.788235
0.389542
0.401307
0.394771
0.396078
0.75817
0.610458
0.435294
0.580392
0.806536
0.4
0.673203
0.39085
0.499346
0.392157
0.45098
0.566013
0.456209
0.389542
0.401307
0.573856
0.734641
0.746405
0.401307
0.402614
0.572549
0.398693
0.572549
0.559477
0.383007
0.384314
0.405229
0.402614
0.430065
0.4
0.394771
0.403922
0.392157
0.394771
0.389542
0.402614
0.392157
0.385621
0.394771
0.380392
0.4
0.389542
0.389542
0.397386
0.379085
0.559477
0.39085
0.392157
0.388235
0.396078
0.484967
0.394771
0.427451
0.398693
0.394771
0.576471
0.418301
0.594771
0.747712
0.416993
0.653595
0.397386
0.456209
0.500654
0.772549
0.556863
0.803922
0.45098
0.769935
0.803922
0.921569
0.921569
0.921569
0.921569
0.921569
0.921569
0.652288
0.469281
0.456209
0.392157
0.568627
0.76732
0.769935
0.586928
0.569935
0.742484
0.747712
0.747712
0.394771
0.394771
0.389542
0.393464
0.39085
0.499346
0.394771
0.675817
0.737255
0.504575
0.388235
0.394771
0.388235
0.379085
0.381699
0.737255
0.737255
0.737255
0.737255
0.737255
0.752941
0.737255
0.55817
0.743791
0.743791
0.741176
0.739869
0.571242
0.737255
0.419608
0.737255
0.737255
0.737255
0.788235
0.603922
0.737255
0.737255
0.737255
0.737255
0.737255
0.737255
0.737255
0.788235
0.788235
0.752941
0.737255
0.410458
0.402614
0.428758
0.555556
0.735948
0.394771
0.401307
0.420915
0.427451
0.415686
0.568627
0.427451
0.397386
0.397386
0.4
0.422222
0.437908
0.403922
0.415686
0.386928
0.392157
0.396078
0.419608
0.389542
0.422222
0.389542
0.406536
0.392157
0.431373
0.396078
0.405229
0.398693
0.39085
0.393464
0.422222
0.414379
0.401307
0.396078
0.392157
0.403922
0.385621
0.392157
0.394771
0.396078
0.397386
0.411765
0.388235
0.460131
0.398693
0.401307
0.386928
0.449673
0.4
0.444444
0.396078
0.405229
0.454902
0.393464
0.396078
0.392157
0.396078
0.426144
0.39085
0.39085
0.427451
0.393464
0.426144
0.397386
0.397386
0.788235
0.788235
0.403922
0.743791
0.743791
0.743791
0.743791
0.788235
0.743791
0.427451
0.430065
0.388235
0.389542
0.43268
0.386928
0.427451
0.381699
0.610458
0.788235
0.788235
0.788235
0.788235
0.788235
0.788235
0.788235
0.788235
0.788235
0.788235
0.788235
0.788235
0.788235
0.788235
0.743791
0.743791
0.743791
0.743791
0.743791
0.743791
0.743791
0.743791
0.743791
0.743791
0.743791
0.743791
0.743791
0.743791
0.743791
0.743791
0.921569
0.743791
0.743791
0.743791
0.743791
0.921569
0.921569
0.921569
0.921569
0.921569
0.921569
0.921569
0.921569
0.921569
0.921569
0.921569
0.921569
0.921569
0.921569
0.921569
0.921569
0.921569
0.921569
0.921569
0.921569
0.921569
0.921569
0.921569
0.921569
0.756863
0.756863
0.743791
0.743791
0.743791
0.921569
0.743791
0.743791
0.743791
0.410458
0.756863
0.743791
0.743791
0.579085
0.743791
0.743791
0.921569
0.921569
0.921569
0.921569
0.921569
0.756863
0.392157
0.392157
0.385621
0.386928
0.4
0.389542
0.396078
0.394771
0.398693
0.39085
0.393464
0.385621
0.397386
0.39085
0.394771
0.392157
0.386928
0.383007
0.392157
0.385621
0.394771
0.398693
0.39085
0.392157
0.39085
0.392157
0.392157
0.39085
0.401307
0.386928
0.435294
0.428758
0.401307
0.401307
0.388235
0.427451
0.393464
0.389542
0.388235
0.388235
0.39085
0.386928
0.388235
0.401307
0.427451
0.43268
0.396078
0.43268
0.419608
0.401307
0.394771
0.389542
0.431373
0.385621
0.430065
0.406536
0.39085
0.393464
0.415686
0.419608
0.424837
0.386928
0.392157
0.393464
0.397386
0.392157
0.398693
0.445752
0.392157
0.401307
0.393464
0.405229
0.428758
0.392157
0.394771
0.403922
0.4
0.396078
0.402614
0.405229
0.397386
0.39085
0.39085
0.443137
0.406536
0.379085
0.392157
0.388235
0.398693
0.389542
0.398693
0.393464
0.407843
0.388235
0.403922
0.40915
0.394771
0.39085
0.402614
0.396078
0.39085
0.383007
0.386928
0.401307
0.392157
0.572549
0.39085
0.568627
0.40915
0.393464
0.433987
0.407843
0.398693
0.39085
0.401307
0.39085
0.571242
0.393464
0.396078
0.402614
0.743791
0.39085
0.389542
0.743791
0.568627
0.563399
0.384314
0.74902
0.569935
0.751634
0.4
0.564706
0.393464
0.4
0.393464
0.569935
0.39085
0.389542
0.393464
0.386928
0.751634
0.388235
0.610458
0.401307
0.571242
0.741176
0.769935
0.738562
0.424837
0.6
0.730719
0.735948
0.39085
0.545098
0.379085
0.555556
0.383007
0.413072
0.386928
0.772549
0.43268
0.415686
0.393464
0.563399
0.380392
0.594771
0.388235
0.618301
0.571242
0.746405
0.751634
0.76732
0.414379
0.745098
0.56732
0.746405
0.569935
0.592157
0.392157
0.380392
0.743791
0.743791
0.921569
