# vtk DataFile Version 1.0
Unstructured Grid Example
ASCII

DATASET UNSTRUCTURED_GRID
POINTS 1156 float
56 91 0
485 64 0
102 25 0
133 193 0
101 121 0
187 92 0
270 168 0
14 184 0
219 221 0
234 305 0
321 332 0
324 258 0
365 373 0
412 236 0
390 233 0
512 167 0
412 184 0
374 204 0
200 105 0
122 33 0
72 90 0
214 50 0
218 18 0
253 19 0
122 119 0
257 160 0
130 161 0
70 108 0
52 114 0
6 158 0
38 159 0
112 187 0
86 181 0
98 202 0
225 262 0
232 357 0
196 513 0
180 481 0
279 364 0
233 437 0
273 513 0
279 323 0
283 265 0
274 203 0
255 248 0
288 257 0
322 195 0
294 210 0
303 307 0
286 372 0
298 415 0
358 344 0
393 362 0
512 301 0
374 258 0
456 199 0
344 194 0
333 226 0
462 164 0
463 179 0
498 183 0
428 187 0
425 176 0
320 183 0
346 185 0
368 160 0
344 34 0
382 112 0
394 1 0
512 124 0
422 32 0
494 159 0
60 32 0
39 1 0
52 58 0
0 60 0
53 77 0
89 70 0
101 76 0
135 94 0
129 72 0
139 64 0
138 53 0
139 41 0
102 11 0
162 45 0
143 23 0
168 1 0
179 1 0
185 26 0
240 1 0
228 54 0
250 93 0
260 57 0
232 75 0
181 67 0
171 58 0
159 96 0
155 62 0
139 102 0
127 106 0
148 103 0
189 112 0
191 102 0
236 100 0
241 157 0
251 134 0
201 154 0
192 133 0
187 157 0
176 165 0
156 136 0
99 145 0
120 153 0
107 160 0
102 130 0
108 103 0
99 99 0
124 97 0
79 106 0
94 100 0
1 127 0
79 132 0
18 144 0
31 147 0
98 165 0
55 166 0
0 171 0
83 167 0
133 182 0
149 188 0
158 171 0
201 205 0
203 192 0
167 196 0
89 205 0
63 202 0
60 193 0
14 199 0
0 252 0
20 219 0
0 288 0
8 316 0
41 487 0
0 496 0
25 466 0
203 375 0
150 399 0
57 295 0
186 270 0
185 233 0
196 213 0
146 211 0
208 403 0
223 350 0
233 317 0
233 411 0
243 413 0
234 424 0
245 436 0
262 437 0
261 377 0
255 363 0
263 338 0
255 334 0
246 326 0
260 279 0
266 286 0
257 236 0
233 277 0
223 240 0
213 277 0
226 229 0
214 174 0
203 221 0
237 210 0
254 226 0
255 203 0
268 211 0
260 170 0
290 238 0
280 274 0
271 254 0
305 273 0
319 248 0
328 269 0
296 289 0
300 281 0
323 278 0
291 308 0
289 296 0
274 315 0
273 305 0
296 373 0
285 335 0
290 381 0
275 385 0
273 394 0
291 407 0
290 447 0
320 408 0
308 469 0
320 398 0
323 385 0
312 340 0
330 372 0
308 362 0
410 329 0
421 300 0
397 313 0
335 343 0
359 359 0
339 415 0
446 465 0
465 513 0
480 376 0
512 370 0
464 303 0
449 310 0
422 288 0
445 260 0
452 284 0
462 277 0
425 278 0
417 259 0
415 278 0
368 273 0
365 242 0
342 255 0
385 255 0
442 244 0
512 253 0
511 241 0
467 258 0
451 210 0
469 215 0
498 225 0
474 205 0
497 200 0
483 155 0
407 172 0
424 151 0
436 193 0
439 202 0
449 228 0
412 221 0
443 235 0
379 237 0
403 231 0
399 219 0
364 200 0
334 199 0
310 233 0
284 205 0
283 195 0
270 194 0
321 167 0
338 166 0
391 197 0
351 164 0
382 191 0
370 126 0
379 72 0
339 124 0
324 111 0
316 150 0
301 112 0
274 122 0
282 1 0
272 20 0
305 39 0
322 30 0
334 12 0
352 59 0
338 1 0
431 40 0
433 1 0
390 98 0
379 122 0
390 131 0
432 139 0
446 138 0
512 55 0
502 62 0
508 149 0
454 36 0
489 18 0
501 11 0
447 14 0
10 1 0
0 13 0
23 11 0
67 1 0
78 15 0
81 1 0
72 72 0
81 47 0
40 20 0
26 66 0
21 38 0
0 78 0
0 33 0
31 91 0
15 89 0
0 105 0
11 105 0
28 107 0
36 117 0
18 113 0
61 111 0
81 116 0
43 110 0
51 103 0
81 97 0
66 99 0
82 83 0
106 92 0
95 87 0
90 98 0
100 111 0
91 113 0
109 117 0
118 88 0
115 97 0
116 108 0
128 84 0
114 78 0
118 67 0
130 60 0
117 24 0
129 44 0
116 43 0
114 55 0
101 38 0
100 57 0
90 30 0
108 1 0
91 17 0
95 1 0
120 13 0
121 1 0
132 9 0
130 23 0
145 11 0
146 1 0
141 32 0
132 33 0
147 74 0
137 79 0
169 71 0
157 73 0
148 47 0
156 33 0
157 17 0
169 15 0
157 1 0
198 1 0
184 13 0
170 33 0
201 24 0
214 1 0
259 1 0
234 33 0
202 77 0
214 72 0
244 69 0
200 60 0
198 41 0
189 78 0
186 51 0
224 83 0
214 88 0
233 90 0
243 82 0
264 85 0
276 95 0
263 113 0
280 109 0
254 102 0
240 111 0
224 104 0
230 117 0
213 117 0
175 112 0
202 116 0
180 100 0
212 99 0
170 95 0
178 79 0
201 94 0
163 83 0
150 83 0
142 87 0
148 94 0
160 107 0
147 112 0
135 112 0
152 123 0
161 119 0
140 121 0
144 136 0
166 146 0
154 150 0
205 141 0
214 149 0
176 137 0
205 126 0
181 120 0
193 121 0
171 123 0
216 126 0
216 136 0
226 132 0
240 129 0
252 122 0
281 129 0
262 132 0
276 139 0
283 149 0
288 137 0
258 148 0
245 144 0
233 149 0
234 138 0
241 169 0
214 163 0
227 160 0
267 150 0
275 155 0
281 164 0
260 181 0
282 180 0
250 174 0
248 184 0
224 181 0
238 183 0
231 172 0
203 179 0
169 185 0
212 184 0
192 177 0
175 176 0
185 170 0
202 167 0
166 162 0
139 154 0
150 164 0
135 170 0
160 183 0
144 178 0
166 175 0
120 180 0
126 173 0
110 173 0
104 181 0
95 182 0
76 175 0
68 156 0
63 172 0
63 163 0
76 161 0
83 154 0
92 172 0
118 166 0
134 144 0
93 154 0
123 143 0
109 141 0
127 128 0
113 130 0
94 136 0
72 122 0
62 121 0
85 125 0
69 132 0
84 141 0
64 142 0
74 143 0
50 137 0
43 144 0
34 136 0
59 133 0
46 122 0
42 133 0
26 118 0
8 118 0
16 124 0
32 127 0
24 134 0
8 136 0
0 143 0
19 162 0
9 148 0
28 159 0
44 166 0
46 156 0
55 154 0
52 146 0
35 178 0
44 175 0
53 176 0
35 169 0
23 173 0
0 181 0
9 167 0
46 188 0
67 186 0
55 185 0
27 191 0
0 196 0
43 203 0
115 200 0
73 201 0
82 199 0
107 195 0
95 193 0
75 192 0
86 191 0
142 194 0
120 192 0
158 193 0
175 192 0
188 190 0
180 185 0
196 186 0
209 202 0
214 195 0
191 198 0
179 203 0
153 201 0
135 205 0
126 200 0
167 207 0
137 214 0
174 214 0
186 210 0
206 212 0
215 209 0
177 223 0
191 224 0
159 226 0
159 216 0
148 232 0
142 223 0
151 220 0
134 230 0
109 232 0
120 219 0
97 218 0
128 213 0
121 207 0
110 213 0
52 212 0
76 211 0
0 211 0
65 214 0
39 216 0
0 232 0
84 221 0
49 240 0
22 247 0
73 234 0
90 242 0
125 241 0
143 253 0
118 344 0
121 263 0
120 306 0
98 267 0
91 413 0
48 356 0
0 356 0
1 481 0
0 460 0
0 413 0
16 492 0
25 513 0
12 513 0
2 513 0
72 513 0
132 513 0
98 513 0
51 513 0
69 482 0
109 471 0
43 420 0
182 378 0
194 354 0
153 362 0
181 409 0
168 437 0
172 513 0
210 434 0
209 454 0
220 513 0
219 418 0
215 388 0
211 360 0
215 337 0
209 297 0
220 311 0
204 315 0
193 331 0
183 298 0
153 295 0
152 329 0
161 272 0
160 247 0
174 239 0
185 250 0
213 233 0
197 238 0
210 249 0
233 346 0
223 365 0
241 357 0
242 344 0
252 353 0
258 346 0
247 367 0
252 378 0
258 387 0
243 381 0
235 387 0
231 378 0
235 368 0
224 402 0
236 397 0
245 404 0
247 427 0
237 449 0
229 486 0
239 513 0
254 440 0
250 449 0
251 466 0
256 427 0
252 414 0
250 392 0
258 396 0
260 449 0
267 429 0
268 444 0
268 454 0
269 467 0
265 490 0
280 461 0
288 476 0
288 495 0
282 451 0
280 438 0
272 436 0
282 428 0
280 404 0
283 419 0
274 422 0
270 405 0
268 415 0
260 419 0
258 405 0
276 375 0
261 355 0
267 369 0
277 354 0
284 391 0
287 356 0
285 346 0
283 304 0
274 334 0
288 317 0
280 296 0
284 288 0
275 288 0
271 296 0
269 274 0
274 267 0
263 300 0
264 310 0
271 343 0
263 319 0
255 309 0
262 328 0
249 317 0
244 307 0
223 324 0
231 335 0
242 334 0
237 290 0
224 295 0
245 270 0
247 292 0
250 283 0
255 297 0
257 269 0
244 217 0
247 234 0
244 256 0
241 226 0
234 235 0
229 220 0
234 247 0
222 199 0
221 190 0
225 208 0
231 200 0
237 193 0
246 207 0
247 194 0
256 217 0
256 191 0
264 203 0
270 223 0
268 233 0
269 243 0
266 262 0
279 246 0
288 247 0
280 233 0
279 224 0
286 217 0
274 185 0
277 214 0
299 251 0
301 235 0
305 257 0
295 264 0
291 272 0
288 280 0
313 282 0
325 288 0
319 270 0
315 262 0
331 249 0
310 249 0
322 239 0
335 263 0
331 237 0
340 247 0
343 236 0
347 263 0
352 239 0
354 250 0
353 270 0
354 280 0
347 286 0
346 277 0
338 288 0
333 281 0
338 273 0
333 295 0
329 313 0
334 304 0
345 304 0
350 294 0
357 301 0
353 334 0
354 313 0
351 324 0
342 337 0
329 336 0
335 326 0
342 315 0
311 326 0
325 344 0
327 322 0
318 319 0
325 303 0
320 310 0
320 295 0
297 300 0
308 294 0
311 303 0
304 316 0
304 333 0
295 324 0
296 342 0
306 353 0
297 357 0
308 372 0
318 349 0
318 360 0
320 374 0
306 411 0
309 382 0
311 398 0
304 392 0
298 400 0
295 391 0
289 398 0
290 438 0
291 425 0
300 428 0
303 441 0
301 457 0
290 458 0
300 513 0
311 454 0
322 489 0
315 441 0
313 432 0
321 426 0
311 422 0
318 417 0
329 416 0
329 403 0
329 436 0
326 450 0
322 466 0
331 513 0
338 453 0
353 478 0
352 513 0
350 442 0
349 428 0
336 427 0
355 406 0
354 370 0
357 381 0
347 383 0
346 396 0
340 377 0
332 382 0
333 393 0
337 352 0
331 362 0
326 353 0
338 368 0
344 346 0
349 354 0
347 363 0
374 299 0
364 295 0
379 309 0
382 293 0
399 297 0
389 303 0
393 328 0
403 322 0
382 334 0
380 320 0
367 337 0
363 326 0
365 313 0
372 351 0
379 344 0
376 363 0
365 392 0
375 415 0
376 446 0
374 513 0
387 475 0
407 513 0
380 384 0
397 382 0
390 351 0
406 354 0
400 339 0
430 371 0
415 343 0
471 414 0
416 434 0
439 513 0
479 463 0
485 513 0
500 513 0
512 507 0
490 492 0
512 486 0
512 453 0
512 413 0
512 318 0
512 340 0
483 325 0
457 337 0
439 322 0
417 319 0
434 338 0
412 299 0
407 309 0
423 311 0
431 296 0
441 296 0
494 294 0
432 306 0
486 274 0
474 287 0
512 273 0
471 268 0
479 262 0
461 267 0
453 264 0
431 262 0
444 269 0
451 274 0
432 286 0
436 276 0
443 286 0
403 278 0
407 289 0
393 286 0
386 279 0
379 274 0
363 285 0
378 284 0
391 271 0
359 263 0
380 265 0
393 260 0
404 265 0
413 267 0
423 267 0
408 255 0
436 252 0
421 251 0
400 251 0
391 247 0
379 248 0
363 253 0
369 233 0
358 231 0
398 240 0
409 246 0
418 243 0
427 236 0
432 243 0
459 231 0
470 231 0
452 237 0
465 239 0
454 248 0
465 248 0
458 256 0
477 252 0
499 257 0
487 253 0
473 242 0
486 242 0
500 238 0
482 233 0
509 227 0
511 218 0
485 224 0
480 215 0
476 223 0
461 219 0
486 202 0
467 197 0
463 205 0
492 211 0
502 210 0
512 206 0
511 194 0
509 185 0
489 192 0
505 175 0
495 171 0
504 159 0
499 150 0
490 146 0
477 165 0
457 152 0
471 152 0
469 171 0
481 180 0
461 189 0
475 191 0
455 172 0
437 182 0
448 185 0
439 169 0
449 162 0
441 154 0
390 163 0
432 160 0
407 158 0
418 163 0
399 182 0
404 193 0
417 197 0
421 205 0
408 202 0
398 209 0
430 201 0
431 212 0
442 212 0
447 198 0
435 230 0
440 222 0
450 219 0
431 222 0
422 224 0
412 212 0
422 214 0
378 212 0
376 224 0
385 224 0
389 209 0
383 202 0
371 195 0
369 213 0
351 201 0
359 210 0
348 216 0
356 219 0
364 222 0
348 229 0
324 230 0
326 217 0
339 220 0
319 222 0
306 222 0
297 219 0
288 228 0
301 202 0
293 193 0
308 212 0
310 202 0
318 205 0
329 207 0
342 208 0
304 192 0
313 189 0
309 178 0
[...]
CELL_DATA 2224
COLOR_SCALARS ColorSpace 1
0.180392
0.385621
0.530719
0.522876
0.236601
0.547712
0.54902
0.249673
0.465359
0.482353
0.520261
0.413072
0.539869
0.545098
0.54902
0.532026
0.551634
0.552941
0.554248
0.537255
0.524183
0.545098
0.443137
0.414379
0.552941
0.555556
0.513725
0.581699
0.479739
0.552941
0.541176
0.487582
0.552941
0.29281
0.556863
0.345098
0.550327
0.551634
0.547712
0.564706
0.515033
0.304575
0.560784
0.537255
0.538562
0.552941
0.554248
0.55817
0.555556
0.545098
0.552941
0.545098
0.533333
0.538562
0.546405
0.551634
0.546405
0.554248
0.54902
0.546405
0.550327
0.546405
0.50719
0.546405
0.521569
0.534641
0.644444
0.375163
0.54902
0.478431
0.503268
0.499346
0.487582
0.496732
0.486275
0.498039
0.386928
0.428758
0.550327
0.396078
0.550327
0.34902
0.541176
0.546405
0.524183
0.543791
0.552941
0.606536
0.430065
0.539869
0.598693
0.583007
0.388235
0.443137
0.481046
0.482353
0.355556
0.513725
0.431373
0.551634
0.556863
0.55817
0.552941
0.532026
0.556863
0.385621
0.504575
0.55817
0.552941
0.54902
0.551634
0.539869
0.522876
0.530719
0.552941
0.552941
0.305882
0.538562
0.496732
0.465359
0.444444
0.597386
0.563399
0.453595
0.424837
0.551634
0.522876
0.294118
0.484967
0.534641
0.337255
0.334641
0.538562
0.528105
0.27451
0.347712
0.384314
0.267974
0.394771
0.265359
0.466667
0.437908
0.372549
0.443137
0.437908
0.551634
0.546405
0.572549
0.287582
0.407843
0.521569
0.471895
0.312418
0.244444
0.560784
0.334641
0.383007
0.282353
0.413072
0.512418
0.4
0.436601
0.396078
0.403922
0.284967
0.171242
0.284967
0.4
0.16732
0.396078
0.315033
0.329412
0.159477
0.386928
0.356863
0.351634
0.443137
0.437908
0.449673
0.54902
0.371242
0.559477
0.555556
0.552941
0.560784
0.509804
0.435294
0.568627
0.413072
0.518954
0.475817
0.257516
0.55817
0.551634
0.54902
0.423529
0.271895
0.286275
0.551634
0.545098
0.556863
0.555556
0.552941
0.555556
0.550327
0.555556
0.303268
0.550327
0.552941
0.554248
0.551634
0.552941
0.554248
0.552941
0.551634
0.555556
0.54902
0.518954
0.537255
0.542484
0.456209
0.546405
0.554248
0.535948
0.551634
0.54902
0.406536
0.552941
0.552941
0.54902
0.54902
0.54902
0.54902
0.550327
0.54902
0.545098
0.550327
0.546405
0.54902
0.54902
0.550327
0.552941
0.550327
0.547712
0.556863
0.550327
0.555556
0.538562
0.550327
0.554248
0.550327
0.543791
0.522876
0.546405
0.542484
0.550327
0.545098
0.54902
0.534641
0.537255
0.542484
0.530719
0.535948
0.530719
0.511111
0.526797
0.500654
0.478431
0.466667
0.469281
0.471895
0.448366
0.481046
0.500654
0.508497
0.541176
0.509804
0.546405
0.533333
0.546405
0.547712
0.54902
0.550327
0.543791
0.547712
0.48366
0.49281
0.51634
0.521569
0.418301
0.467974
0.504575
0.355556
0.338562
0.25098
0.44183
0.444444
0.477124
0.48366
0.392157
0.487582
0.452288
0.380392
0.471895
0.508497
0.571242
0.503268
0.598693
0.454902
0.469281
0.526797
0.518954
0.491503
0.532026
0.381699
0.545098
0.550327
0.529412
0.541176
0.534641
0.542484
0.522876
0.534641
0.541176
0.546405
0.552941
0.55817
0.543791
0.547712
0.54902
0.559477
0.545098
0.546405
0.550327
0.550327
0.546405
0.54902
0.55817
0.555556
0.461438
0.551634
0.559477
0.541176
0.481046
0.530719
0.552941
0.435294
0.424837
0.601307
0.562092
0.435294
0.511111
0.447059
0.559477
0.437908
0.545098
0.50719
0.423529
0.495425
0.498039
0.445752
0.45098
0.495425
0.439216
0.460131
0.328105
0.592157
0.443137
0.501961
0.437908
0.627451
0.435294
0.63268
0.63268
0.287582
0.403922
0.430065
0.368627
0.60915
0.356863
0.500654
0.542484
0.500654
0.393464
0.385621
0.54902
0.420915
0.39085
0.386928
0.418301
0.479739
0.346405
0.500654
0.517647
0.532026
0.464052
0.254902
0.437908
0.524183
0.453595
0.436601
0.320261
0.356863
0.498039
0.644444
0.498039
0.478431
0.505882
0.522876
0.501961
0.498039
0.52549
0.51634
0.352941
0.522876
0.467974
0.524183
0.529412
0.394771
0.397386
0.547712
0.601307
0.475817
0.437908
0.351634
0.430065
0.528105
0.605229
0.471895
0.477124
0.530719
0.526797
0.385621
0.615686
0.542484
0.479739
0.520261
0.326797
0.448366
0.521569
0.528105
0.545098
0.452288
0.545098
0.550327
0.54902
0.550327
0.529412
0.503268
0.54902
0.515033
0.402614
0.535948
0.547712
0.515033
0.552941
0.552941
0.552941
0.392157
0.551634
0.568627
0.551634
0.350327
0.440523
0.56732
0.547712
0.478431
0.467974
0.521569
0.503268
0.511111
0.406536
0.488889
0.477124
0.420915
0.439216
0.54902
0.484967
0.572549
0.385621
0.550327
0.551634
0.547712
0.552941
0.601307
0.55817
0.550327
0.416993
0.197386
0.335948
0.526797
0.56732
0.552941
0.424837
0.326797
0.552941
0.508497
0.515033
0.461438
0.196078
0.371242
0.183007
0.284967
0.342484
0.279739
0.333333
0.184314
0.186928
0.159477
0.339869
0.282353
0.181699
0.160784
0.181699
0.339869
0.252288
0.312418
0.218301
0.385621
0.320261
0.258824
0.27451
0.503268
0.326797
0.420915
0.488889
0.290196
0.554248
0.552941
0.555556
0.552941
0.467974
0.554248
0.551634
0.533333
0.439216
0.271895
0.275817
0.541176
0.54902
0.355556
0.27451
0.152941
0.256209
0.220915
0.240523
0.299346
0.342484
0.291503
0.25098
0.270588
0.278431
0.322876
0.262745
0.230065
0.34902
0.364706
0.313725
0.388235
0.236601
0.264052
0.253595
0.282353
0.343791
0.266667
0.269281
0.318954
0.282353
0.550327
0.437908
0.504575
0.509804
0.444444
0.51634
0.52549
0.530719
0.54902
0.545098
0.552941
0.537255
0.545098
0.551634
0.545098
0.556863
0.552941
0.513725
0.551634
0.545098
0.529412
0.530719
0.554248
0.545098
0.529412
0.475817
0.504575
0.543791
0.296732
0.530719
0.479739
0.539869
0.555556
0.551634
0.550327
0.555556
0.554248
0.551634
0.550327
0.477124
0.45098
0.546405
0.54902
0.554248
0.54902
0.383007
0.552941
0.467974
0.439216
0.383007
0.521569
0.415686
0.50719
0.431373
0.426144
0.403922
0.49281
0.433987
0.320261
0.484967
0.376471
0.36732
0.4
0.364706
0.39085
0.337255
0.257516
0.362092
0.369935
0.360784
0.290196
0.354248
0.347712
0.388235
0.471895
0.371242
0.462745
0.422222
0.43268
0.315033
0.428758
0.360784
0.511111
0.456209
0.469281
0.401307
0.520261
0.407843
0.381699
0.475817
0.389542
0.435294
0.273203
0.352941
0.453595
0.542484
0.443137
0.440523
0.312418
0.401307
0.301961
0.339869
0.30719
0.284967
0.345098
0.147712
0.444444
0.287582
0.372549
0.27451
0.143791
0.166013
0.171242
0.168627
0.279739
0.163399
0.244444
0.236601
0.321569
0.192157
0.171242
0.243137
0.337255
0.215686
0.275817
0.296732
0.277124
0.332026
0.381699
0.228758
0.30719
0.333333
0.388235
0.256209
0.320261
0.380392
0.491503
0.443137
0.16732
0.431373
0.166013
0.28366
0.414379
0.392157
0.206536
0.389542
0.498039
0.398693
0.397386
0.59085
0.261438
0.249673
0.541176
0.277124
0.530719
0.464052
0.581699
0.473203
0.581699
0.547712
0.415686
0.332026
0.371242
0.430065
0.313725
0.363399
0.393464
0.447059
0.447059
0.45098
0.351634
0.295425
0.501961
0.532026
0.415686
0.511111
0.501961
0.538562
0.56732
0.407843
0.559477
0.43268
0.55817
0.573856
0.477124
0.552941
0.556863
0.564706
0.556863
0.559477
0.556863
0.555556
0.555556
0.566013
0.556863
0.554248
0.560784
0.332026
0.55817
0.559477
0.554248
0.554248
0.559477
0.594771
0.584314
0.55817
0.562092
0.597386
0.572549
0.562092
0.560784
0.580392
0.55817
0.55817
0.563399
0.588235
0.362092
0.466667
0.262745
0.317647
0.504575
0.407843
0.228758
0.479739
0.461438
0.354248
0.373856
0.566013
0.303268
0.396078
0.377778
0.562092
0.433987
0.556863
0.566013
0.555556
0.521569
0.49281
0.555556
0.555556
0.556863
0.554248
0.559477
0.55817
0.499346
0.564706
0.481046
0.581699
0.572549
0.447059
0.554248
0.551634
0.555556
0.396078
0.550327
0.550327
0.550327
0.54902
0.552941
0.554248
0.552941
0.554248
0.552941
0.555556
0.550327
0.55817
0.554248
0.550327
0.550327
0.551634
0.550327
0.55817
0.551634
0.551634
0.550327
0.554248
0.552941
0.552941
0.551634
0.554248
0.554248
0.555556
0.550327
0.554248
0.54902
0.554248
0.550327
0.551634
0.550327
0.552941
0.550327
0.552941
0.550327
0.550327
0.552941
0.550327
0.550327
0.551634
0.54902
0.54902
0.54902
0.546405
0.550327
0.54902
0.552941
0.551634
0.546405
0.546405
0.550327
0.550327
0.550327
0.54902
0.550327
0.552941
0.54902
0.54902
0.551634
0.552941
0.556863
0.551634
0.54902
0.551634
0.551634
0.551634
0.551634
0.550327
0.554248
0.554248
0.551634
0.552941
0.551634
0.552941
0.552941
0.551634
0.552941
0.551634
0.551634
0.551634
0.552941
0.552941
0.551634
0.552941
0.551634
0.54902
0.551634
0.552941
0.551634
0.551634
0.551634
0.550327
0.551634
0.550327
0.552941
0.551634
0.550327
0.552941
0.550327
0.551634
0.545098
0.54902
0.541176
0.54902
0.54902
0.550327
0.550327
0.551634
0.54902
0.54902
0.54902
0.54902
0.533333
0.545098
0.547712
0.547712
0.54902
0.547712
0.547712
0.54902
0.546405
0.54902
0.550327
0.551634
0.550327
0.551634
0.551634
0.545098
0.546405
0.546405
0.54902
0.54902
0.54902
0.547712
0.547712
0.542484
0.539869
0.541176
0.542484
0.545098
0.545098
0.541176
0.546405
0.54902
0.546405
0.546405
0.541176
0.537255
0.537255
0.541176
0.537255
0.547712
0.54902
0.546405
0.535948
0.545098
0.547712
0.547712
0.545098
0.546405
0.545098
0.546405
0.547712
0.547712
0.545098
0.547712
0.547712
0.547712
0.54902
0.54902
0.547712
0.550327
0.547712
0.550327
0.550327
0.550327
0.550327
0.54902
0.550327
0.551634
0.547712
0.551634
0.550327
0.547712
0.54902
0.54902
0.54902
0.547712
0.547712
0.546405
0.54902
0.543791
0.54902
0.546405
0.545098
0.545098
0.543791
0.54902
0.547712
0.54902
0.54902
0.546405
0.547712
0.546405
0.547712
0.534641
0.547712
0.542484
0.547712
0.539869
0.535948
0.546405
0.545098
0.535948
0.547712
0.543791
0.542484
0.545098
0.545098
0.542484
0.547712
0.537255
0.539869
0.547712
0.545098
0.541176
0.543791
0.546405
0.546405
0.547712
0.545098
0.543791
0.545098
0.537255
0.537255
0.543791
0.532026
0.535948
0.542484
0.533333
0.530719
0.533333
0.532026
0.539869
0.537255
0.537255
0.518954
0.526797
0.520261
0.534641
0.535948
0.539869
0.532026
0.542484
0.526797
0.539869
0.522876
0.498039
0.520261
0.534641
0.528105
0.499346
0.513725
0.534641
0.52549
0.488889
0.481046
0.500654
0.478431
0.503268
0.470588
0.49281
0.466667
0.49281
0.465359
0.464052
0.461438
0.460131
0.456209
0.469281
0.47451
0.467974
0.469281
0.473203
0.47451
0.482353
0.49281
0.490196
0.48366
0.501961
0.524183
0.513725
0.511111
0.515033
0.504575
0.499346
0.477124
0.496732
0.481046
0.478431
0.496732
0.498039
0.490196
0.496732
0.481046
0.496732
0.500654
0.524183
0.426144
0.513725
0.486275
0.522876
0.585621
0.529412
0.526797
0.52549
0.520261
0.51634
0.518954
0.505882
0.509804
0.526797
0.509804
0.530719
0.515033
0.518954
0.505882
0.539869
0.529412
0.543791
0.535948
0.543791
0.532026
0.538562
0.539869
0.541176
0.545098
0.539869
0.545098
0.538562
0.537255
0.443137
0.465359
0.526797
0.261438
0.351634
0.465359
0.443137
0.482353
0.491503
0.443137
0.486275
0.512418
0.308497
0.318954
0.539869
0.529412
0.375163
0.559477
0.521569
0.424837
0.419608
0.45098
0.309804
0.350327
0.393464
0.322876
0.503268
0.419608
0.51634
0.486275
0.478431
0.415686
0.460131
0.592157
0.447059
0.490196
0.477124
0.473203
0.478431
0.48366
0.403922
0.433987
0.488889
0.433987
0.488889
0.377778
0.462745
0.545098
0.520261
0.500654
0.371242
0.532026
0.471895
0.50719
0.4
0.447059
0.546405
0.566013
0.43268
0.597386
0.414379
0.39085
0.456209
0.486275
0.490196
0.479739
0.496732
0.503268
0.486275
0.486275
0.486275
0.481046
0.430065
0.487582
0.456209
0.420915
0.512418
0.428758
0.54902
0.491503
0.490196
0.461438
0.484967
0.405229
0.31634
0.328105
0.426144
0.45098
0.572549
0.460131
0.543791
0.500654
0.509804
0.560784
0.406536
0.355556
0.564706
0.533333
0.488889
0.321569
0.592157
0.377778
0.677124
0.312418
0.269281
0.431373
0.577778
0.372549
0.458824
0.465359
0.44183
0.588235
0.56732
0.571242
0.398693
0.563399
0.458824
0.488889
0.443137
0.437908
0.435294
0.40915
0.598693
0.560784
0.535948
0.511111
0.405229
0.498039
0.317647
0.524183
0.628758
0.517647
0.341176
0.539869
0.420915
0.512418
0.554248
0.56732
0.420915
0.526797
0.498039
0.482353
0.521569
0.583007
0.43268
0.466667
0.545098
0.494118
0.535948
0.51634
0.528105
0.526797
0.533333
0.588235
0.541176
0.533333
0.515033
0.542484
0.505882
0.552941
0.539869
0.541176
0.545098
0.547712
0.539869
0.545098
0.535948
0.537255
0.543791
0.545098
0.541176
0.543791
0.545098
0.547712
0.537255
0.538562
0.551634
0.552941
0.552941
0.552941
0.547712
0.550327
0.550327
0.552941
0.552941
0.551634
0.547712
0.550327
0.54902
0.550327
0.54902
0.545098
0.550327
0.550327
0.552941
0.552941
0.543791
0.546405
0.545098
0.547712
0.541176
0.543791
0.482353
0.543791
0.508497
0.542484
0.535948
0.423529
0.546405
0.550327
0.545098
0.550327
0.542484
0.547712
0.551634
0.554248
0.54902
0.547712
0.633987
0.419608
0.410458
0.541176
0.427451
0.541176
0.498039
0.496732
0.473203
0.568627
0.554248
0.423529
0.524183
0.539869
0.546405
0.471895
0.500654
0.566013
0.568627
0.550327
0.494118
0.551634
0.542484
0.473203
0.511111
0.45098
0.501961
0.577778
0.491503
0.460131
0.488889
0.513725
0.518954
0.555556
0.547712
0.49281
0.521569
0.569935
0.515033
0.486275
0.478431
0.443137
0.368627
0.457516
0.460131
0.373856
0.48366
0.458824
0.535948
0.380392
0.530719
0.499346
0.513725
0.436601
0.547712
0.571242
0.436601
0.447059
0.577778
0.324183
0.551634
0.477124
0.520261
0.55817
0.577778
0.526797
0.505882
0.496732
0.286275
0.252288
0.386928
0.35817
0.49281
0.406536
0.433987
0.435294
0.354248
0.428758
0.375163
0.351634
0.477124
0.424837
0.359477
0.444444
0.335948
0.352941
0.581699
0.368627
0.371242
0.550327
0.675817
0.449673
0.566013
0.464052
0.521569
0.554248
0.530719
0.530719
0.491503
0.556863
0.453595
0.580392
0.665359
0.372549
0.687582
0.647059
0.394771
0.362092
0.465359
0.457516
0.464052
0.301961
0.44183
0.467974
0.620915
0.658824
0.496732
0.375163
0.4
0.420915
0.662745
0.588235
0.381699
0.628758
0.487582
0.484967
0.355556
0.39085
0.664052
0.538562
0.424837
0.503268
0.589542
0.411765
0.524183
0.580392
0.602614
0.603922
0.586928
0.356863
0.478431
0.538562
0.55817
0.495425
0.503268
0.45098
0.478431
0.491503
0.500654
0.479739
0.481046
0.449673
0.576471
0.488889
0.48366
0.36732
0.396078
0.457516
0.413072
0.433987
0.520261
0.428758
0.411765
0.304575
0.445752
0.51634
0.522876
0.454902
0.494118
0.495425
0.488889
0.488889
0.518954
0.484967
0.49281
0.49281
0.475817
0.495425
0.456209
0.521569
0.418301
0.413072
0.401307
0.50719
0.423529
0.470588
0.495425
0.551634
0.394771
0.364706
0.366013
0.513725
0.355556
0.376471
0.347712
0.44183
0.341176
0.25098
0.466667
0.360784
0.537255
0.448366
0.305882
0.35817
0.418301
0.453595
0.304575
0.443137
0.440523
0.364706
0.509804
0.410458
0.44183
0.505882
0.383007
0.533333
0.435294
0.428758
0.597386
0.532026
0.322876
0.547712
0.29281
0.312418
0.356863
0.315033
0.354248
0.423529
0.505882
0.351634
0.342484
0.466667
0.44183
0.496732
0.363399
0.413072
0.339869
0.339869
0.420915
0.49281
0.322876
0.584314
0.407843
0.524183
0.51634
0.534641
0.496732
0.503268
0.494118
0.49281
0.482353
0.482353
0.487582
0.482353
0.487582
0.512418
0.505882
0.52549
0.501961
0.521569
0.535948
0.517647
0.511111
0.436601
0.512418
0.513725
0.50719
0.512418
0.386928
0.503268
0.496732
0.504575
0.494118
0.48366
0.496732
0.490196
0.48366
0.487582
0.475817
0.475817
0.477124
0.479739
0.491503
0.496732
0.513725
0.513725
0.52549
0.517647
0.524183
0.517647
0.533333
0.524183
0.537255
0.443137
0.517647
0.522876
0.416993
0.577778
0.29281
0.462745
0.532026
0.439216
0.386928
0.546405
0.420915
0.494118
0.535948
0.529412
0.423529
0.503268
0.530719
0.529412
0.543791
0.526797
0.524183
0.453595
0.550327
0.543791
0.461438
0.475817
0.465359
0.588235
0.392157
0.461438
0.445752
0.401307
0.533333
0.424837
0.36732
0.397386
0.428758
0.31634
0.354248
0.334641
0.424837
0.481046
0.501961
0.545098
0.522876
0.424837
0.520261
0.597386
0.522876
0.563399
0.547712
0.494118
0.566013
0.503268
0.486275
0.515033
0.524183
0.575163
0.562092
0.505882
0.529412
0.48366
0.532026
0.477124
0.486275
0.403922
0.488889
0.428758
0.363399
0.49281
0.478431
0.453595
0.607843
0.55817
0.479739
0.487582
0.509804
0.458824
0.486275
0.490196
0.526797
0.494118
0.573856
0.522876
0.484967
0.49281
0.559477
0.503268
0.467974
0.52549
0.495425
0.576471
0.456209
0.584314
0.554248
0.54902
0.479739
0.542484
0.501961
0.564706
0.539869
0.461438
0.537255
0.433987
0.414379
0.406536
0.55817
0.534641
0.546405
0.532026
0.458824
0.535948
0.537255
0.545098
0.54902
0.537255
0.532026
0.426144
0.534641
0.534641
0.538562
0.533333
0.533333
0.539869
0.503268
0.541176
0.538562
0.547712
0.539869
0.494118
0.454902
0.415686
0.50719
0.470588
0.537255
0.552941
0.477124
0.543791
0.542484
0.54902
0.537255
0.546405
0.550327
0.521569
0.449673
0.52549
0.533333
0.541176
0.537255
0.533333
0.528105
0.537255
0.539869
0.556863
0.545098
0.534641
0.535948
0.537255
0.537255
0.539869
0.535948
0.551634
0.550327
0.521569
0.452288
0.517647
0.551634
0.529412
0.551634
0.532026
0.532026
0.535948
0.552941
0.524183
0.543791
0.550327
0.530719
0.51634
0.545098
0.550327
0.555556
0.552941
0.54902
0.551634
0.551634
0.551634
0.554248
0.551634
0.554248
0.550327
0.550327
0.554248
0.555556
0.552941
0.554248
0.554248
0.555556
0.554248
0.552941
0.552941
0.552941
0.551634
0.551634
0.551634
0.552941
0.47451
0.551634
0.54902
0.552941
0.470588
0.550327
0.551634
0.552941
0.494118
0.552941
0.552941
0.372549
0.550327
0.552941
0.363399
0.547712
0.267974
0.473203
0.475817
0.542484
0.547712
0.573856
0.554248
0.563399
0.475817
0.550327
0.55817
0.551634
0.537255
0.342484
0.470588
0.563399
0.47451
0.457516
0.437908
0.54902
0.505882
0.433987
0.427451
0.509804
0.470588
0.535948
0.305882
0.509804
0.452288
0.464052
0.596078
0.473203
0.469281
0.436601
0.40915
0.579085
0.504575
0.542484
0.394771
0.54902
0.456209
0.447059
0.524183
0.484967
0.491503
0.550327
0.482353
0.471895
0.551634
0.539869
0.550327
0.54902
0.546405
0.552941
0.552941
0.554248
0.551634
0.550327
0.559477
0.539869
0.579085
0.529412
0.495425
0.490196
0.580392
0.584314
0.55817
0.573856
0.627451
0.54902
0.466667
0.445752
0.499346
0.550327
0.521569
0.461438
0.54902
0.383007
0.294118
0.375163
0.477124
0.564706
0.488889
0.563399
0.392157
0.36732
0.501961
0.338562
0.460131
0.415686
0.318954
0.426144
0.183007
0.2
0.194771
0.555556
0.498039
0.401307
0.437908
0.444444
0.436601
0.437908
0.554248
0.300654
0.44183
0.622222
0.551634
0.551634
0.554248
0.564706
0.54902
0.552941
0.543791
0.55817
0.550327
0.551634
0.296732
0.555556
0.402614
0.55817
0.554248
0.539869
0.555556
0.556863
0.55817
0.559477
0.528105
0.504575
0.305882
0.509804
0.461438
0.303268
0.490196
0.194771
0.35817
0.284967
0.534641
0.301961
0.369935
0.39085
0.177778
0.193464
0.186928
0.312418
0.54902
0.444444
0.169935
0.193464
0.332026
0.197386
0.530719
0.179085
0.175163
0.414379
0.452288
0.458824
0.279739
0.509804
0.214379
0.490196
0.188235
0.175163
0.338562
0.181699
0.188235
0.172549
0.256209
0.203922
0.237908
0.249673
0.383007
0.252288
0.279739
0.339869
0.312418
0.185621
0.252288
0.329412
0.359477
0.286275
0.386928
0.206536
0.359477
0.181699
0.198693
0.16732
0.19085
0.352941
0.220915
0.203922
0.312418
0.227451
0.281046
0.177778
0.351634
0.193464
0.248366
0.262745
0.356863
0.305882
0.290196
0.264052
0.431373
0.397386
0.312418
0.278431
0.277124
0.31634
0.312418
0.324183
0.339869
0.311111
0.294118
0.359477
0.28366
0.275817
0.355556
0.290196
0.32549
0.330719
0.305882
0.299346
0.333333
0.332026
0.301961
0.394771
0.203922
0.368627
0.34902
0.287582
0.317647
0.311111
0.290196
0.171242
0.28366
0.219608
0.324183
0.23268
0.318954
0.320261
0.233987
0.337255
0.379085
0.559477
0.345098
0.31634
0.333333
0.305882
0.406536
0.356863
0.333333
0.30719
0.456209
0.393464
0.532026
0.50719
0.532026
0.482353
0.554248
0.556863
0.555556
0.533333
0.552941
0.555556
0.509804
0.552941
0.494118
0.520261
0.50719
0.513725
0.517647
0.499346
0.371242
0.47451
0.392157
0.444444
0.407843
0.354248
0.34902
0.411765
0.511111
0.296732
0.447059
0.402614
0.311111
0.535948
0.504575
0.515033
0.520261
0.529412
0.528105
0.554248
0.499346
0.551634
0.524183
0.512418
0.414379
0.500654
0.439216
0.396078
0.32549
0.270588
0.277124
0.239216
0.252288
0.269281
0.401307
0.23268
0.383007
0.352941
0.337255
0.286275
0.355556
0.183007
0.420915
0.426144
0.224837
0.172549
0.260131
0.271895
0.156863
0.270588
0.239216
0.271895
