# vtk DataFile Version 1.0
Unstructured Grid Example
ASCII

DATASET UNSTRUCTURED_GRID
POINTS 3402 float
185 56 0
231 44 0
111 114 0
203 136 0
259 358 0
97 202 0
412 260 0
269 402 0
362 361 0
346 197 0
262 186 0
445 140 0
495 53 0
99 7 0
90 11 0
142 22 0
146 1 0
188 135 0
216 187 0
266 170 0
171 189 0
99 159 0
65 193 0
27 206 0
235 234 0
231 336 0
253 378 0
239 434 0
272 332 0
256 513 0
281 321 0
277 304 0
281 227 0
319 330 0
352 280 0
352 350 0
307 368 0
317 422 0
389 342 0
391 311 0
417 306 0
420 275 0
502 261 0
512 250 0
491 201 0
406 251 0
282 248 0
305 258 0
324 149 0
300 177 0
390 71 0
424 162 0
441 200 0
126 1 0
67 82 0
101 103 0
50 110 0
132 65 0
165 78 0
126 59 0
156 22 0
148 20 0
174 84 0
171 77 0
225 92 0
265 97 0
294 3 0
257 108 0
291 140 0
254 101 0
244 104 0
219 117 0
126 155 0
89 150 0
145 153 0
158 143 0
197 154 0
279 189 0
192 185 0
134 181 0
89 184 0
115 163 0
42 168 0
88 166 0
36 162 0
22 155 0
79 161 0
13 148 0
4 145 0
7 159 0
13 164 0
0 192 0
98 197 0
95 210 0
137 192 0
148 201 0
260 203 0
253 229 0
214 287 0
161 220 0
69 211 0
124 211 0
210 344 0
208 416 0
156 428 0
224 498 0
156 468 0
237 383 0
257 448 0
239 363 0
239 358 0
235 329 0
266 361 0
272 350 0
279 386 0
279 400 0
274 410 0
280 467 0
289 438 0
295 402 0
287 339 0
285 328 0
285 309 0
271 303 0
268 327 0
268 289 0
263 282 0
275 227 0
265 202 0
284 258 0
287 195 0
289 246 0
304 236 0
308 247 0
313 247 0
317 231 0
318 236 0
335 267 0
322 259 0
315 254 0
304 267 0
303 251 0
310 304 0
297 308 0
315 355 0
306 441 0
310 403 0
330 450 0
342 434 0
339 380 0
322 279 0
317 276 0
398 309 0
349 310 0
367 332 0
356 446 0
349 391 0
463 496 0
506 507 0
480 404 0
448 385 0
415 321 0
423 271 0
425 280 0
371 269 0
368 290 0
349 301 0
412 246 0
347 266 0
416 267 0
452 243 0
480 250 0
476 224 0
485 211 0
476 205 0
464 168 0
501 205 0
459 163 0
409 190 0
417 202 0
416 217 0
422 210 0
389 221 0
403 219 0
364 213 0
329 214 0
313 228 0
351 164 0
331 172 0
355 201 0
367 164 0
404 182 0
437 150 0
434 133 0
401 140 0
310 126 0
377 113 0
319 38 0
323 82 0
339 5 0
425 68 0
356 104 0
461 80 0
443 24 0
464 106 0
445 113 0
463 149 0
481 130 0
511 142 0
466 90 0
489 28 0
466 11 0
70 1 0
44 1 0
74 9 0
82 1 0
25 27 0
78 44 0
17 10 0
0 40 0
0 17 0
60 87 0
72 72 0
49 87 0
0 92 0
71 93 0
103 86 0
85 105 0
96 84 0
95 76 0
82 72 0
125 74 0
104 64 0
119 81 0
106 94 0
119 95 0
129 98 0
127 105 0
126 92 0
142 86 0
137 61 0
143 36 0
140 55 0
133 58 0
130 40 0
126 31 0
124 25 0
106 21 0
130 23 0
130 28 0
131 17 0
144 16 0
167 8 0
161 29 0
165 36 0
151 44 0
205 7 0
183 41 0
210 1 0
193 1 0
176 1 0
221 15 0
222 9 0
237 13 0
243 15 0
260 10 0
255 19 0
273 33 0
242 25 0
242 48 0
228 21 0
185 67 0
186 75 0
213 49 0
272 51 0
220 71 0
248 100 0
237 93 0
225 98 0
208 86 0
210 104 0
154 103 0
175 107 0
167 68 0
158 59 0
156 49 0
150 53 0
151 60 0
152 79 0
154 86 0
148 84 0
137 118 0
110 109 0
123 119 0
118 122 0
105 123 0
158 119 0
173 125 0
193 115 0
169 114 0
143 111 0
197 120 0
205 112 0
224 114 0
270 114 0
239 107 0
266 124 0
232 125 0
216 127 0
207 122 0
210 127 0
227 136 0
221 143 0
231 144 0
245 144 0
278 134 0
271 157 0
279 149 0
249 160 0
223 150 0
182 145 0
168 160 0
167 151 0
127 149 0
143 135 0
169 131 0
125 137 0
125 130 0
117 148 0
118 154 0
104 160 0
82 156 0
79 152 0
74 154 0
58 146 0
71 148 0
70 143 0
58 140 0
77 145 0
90 144 0
98 143 0
102 139 0
96 134 0
103 129 0
101 117 0
96 113 0
91 115 0
82 110 0
69 122 0
59 134 0
82 135 0
38 132 0
47 136 0
20 131 0
56 129 0
16 123 0
6 111 0
0 111 0
13 119 0
10 125 0
11 131 0
19 146 0
0 139 0
33 146 0
35 140 0
47 141 0
49 157 0
45 153 0
40 153 0
33 158 0
33 152 0
29 171 0
51 161 0
65 171 0
58 177 0
0 182 0
92 178 0
65 178 0
70 176 0
87 172 0
84 168 0
95 165 0
97 169 0
106 165 0
193 166 0
153 163 0
180 173 0
215 174 0
145 171 0
135 173 0
128 178 0
174 193 0
170 184 0
180 194 0
205 190 0
214 195 0
190 204 0
181 200 0
154 198 0
141 195 0
135 201 0
113 197 0
126 201 0
127 193 0
104 185 0
124 183 0
58 189 0
40 183 0
51 190 0
86 193 0
91 197 0
101 219 0
82 205 0
101 211 0
129 213 0
141 205 0
109 222 0
135 230 0
95 226 0
83 225 0
74 220 0
0 454 0
8 499 0
11 507 0
24 513 0
0 510 0
41 480 0
39 513 0
93 341 0
33 302 0
67 282 0
170 270 0
167 249 0
194 310 0
153 324 0
183 326 0
200 399 0
215 381 0
212 364 0
196 235 0
200 357 0
202 224 0
207 222 0
187 225 0
172 213 0
142 226 0
161 207 0
142 213 0
179 211 0
194 208 0
210 206 0
234 342 0
220 360 0
242 344 0
246 349 0
250 362 0
251 386 0
245 378 0
240 389 0
232 370 0
224 382 0
226 401 0
240 415 0
234 422 0
232 431 0
236 513 0
242 498 0
242 450 0
244 438 0
249 431 0
245 427 0
257 402 0
263 388 0
253 407 0
261 408 0
254 420 0
271 455 0
268 500 0
265 435 0
273 418 0
274 391 0
274 384 0
275 360 0
269 355 0
262 354 0
258 374 0
252 340 0
255 348 0
267 344 0
270 340 0
275 343 0
274 277 0
274 308 0
277 274 0
268 268 0
276 240 0
260 254 0
258 244 0
266 304 0
259 311 0
266 320 0
254 313 0
244 311 0
227 332 0
227 340 0
219 331 0
232 253 0
226 297 0
246 241 0
252 250 0
257 262 0
241 213 0
241 225 0
237 216 0
232 226 0
225 205 0
216 182 0
218 166 0
232 178 0
235 202 0
236 183 0
255 188 0
242 184 0
260 198 0
261 211 0
263 221 0
274 218 0
278 221 0
265 207 0
277 196 0
278 184 0
293 244 0
290 240 0
295 255 0
294 264 0
298 266 0
311 266 0
297 251 0
311 237 0
299 236 0
323 230 0
321 240 0
328 247 0
339 236 0
340 231 0
341 251 0
324 273 0
319 271 0
318 257 0
313 273 0
329 307 0
316 288 0
332 299 0
337 298 0
339 305 0
337 321 0
334 317 0
318 319 0
318 325 0
312 329 0
308 311 0
296 318 0
293 304 0
294 289 0
298 282 0
289 284 0
280 289 0
286 295 0
291 327 0
286 303 0
284 383 0
292 375 0
295 371 0
301 335 0
299 398 0
299 413 0
307 412 0
291 405 0
286 416 0
280 405 0
285 441 0
287 450 0
282 452 0
294 452 0
299 459 0
306 462 0
300 467 0
306 449 0
300 441 0
307 436 0
313 442 0
309 428 0
317 448 0
311 472 0
316 489 0
320 442 0
333 496 0
322 424 0
329 422 0
318 416 0
333 396 0
329 375 0
322 383 0
311 381 0
309 398 0
310 340 0
308 373 0
320 367 0
333 370 0
344 330 0
369 311 0
358 316 0
378 311 0
385 314 0
389 303 0
371 341 0
362 343 0
358 352 0
354 332 0
346 319 0
359 372 0
357 359 0
353 373 0
358 406 0
347 414 0
373 394 0
361 378 0
369 362 0
391 360 0
385 355 0
393 333 0
399 332 0
394 339 0
425 345 0
420 381 0
492 505 0
457 513 0
512 504 0
500 476 0
487 372 0
412 326 0
512 331 0
406 323 0
404 312 0
403 318 0
408 299 0
443 296 0
455 300 0
464 300 0
512 298 0
472 293 0
512 266 0
481 258 0
474 258 0
467 254 0
451 258 0
425 258 0
458 272 0
437 287 0
423 293 0
416 272 0
404 283 0
384 294 0
376 270 0
352 289 0
353 256 0
350 263 0
361 255 0
381 259 0
411 251 0
385 245 0
375 245 0
369 248 0
369 243 0
346 243 0
348 236 0
345 239 0
351 231 0
353 237 0
378 231 0
450 234 0
443 238 0
406 240 0
418 243 0
402 243 0
474 248 0
465 246 0
458 244 0
511 240 0
457 232 0
511 221 0
511 228 0
506 223 0
471 230 0
462 218 0
461 207 0
458 215 0
471 213 0
491 212 0
495 205 0
512 202 0
506 200 0
477 194 0
512 171 0
498 169 0
469 171 0
460 174 0
465 180 0
471 196 0
458 185 0
457 193 0
448 200 0
447 185 0
450 175 0
452 168 0
430 167 0
433 184 0
417 187 0
429 199 0
403 200 0
397 211 0
396 202 0
412 206 0
447 215 0
456 211 0
441 219 0
436 217 0
432 220 0
422 216 0
420 221 0
392 230 0
373 219 0
372 205 0
391 203 0
376 199 0
357 207 0
342 202 0
369 213 0
368 218 0
364 221 0
341 221 0
338 227 0
335 217 0
296 213 0
291 213 0
284 205 0
282 195 0
294 208 0
299 194 0
322 205 0
319 182 0
306 181 0
302 186 0
283 186 0
299 182 0
288 171 0
283 167 0
294 171 0
299 172 0
306 171 0
354 177 0
349 177 0
325 183 0
323 188 0
323 193 0
360 190 0
365 188 0
372 177 0
361 177 0
384 174 0
386 160 0
397 131 0
380 130 0
389 123 0
383 122 0
366 128 0
370 123 0
371 141 0
360 147 0
363 160 0
302 158 0
319 146 0
299 164 0
294 165 0
285 152 0
284 131 0
284 114 0
316 136 0
332 136 0
358 131 0
304 33 0
299 86 0
298 56 0
289 95 0
284 82 0
283 20 0
281 10 0
289 1 0
294 25 0
302 1 0
316 2 0
323 1 0
320 52 0
322 60 0
318 91 0
376 80 0
330 109 0
332 78 0
361 46 0
338 14 0
399 1 0
413 1 0
435 26 0
444 10 0
457 30 0
458 45 0
457 60 0
456 54 0
433 33 0
446 65 0
399 93 0
397 122 0
411 127 0
406 152 0
406 163 0
426 129 0
447 160 0
416 110 0
450 105 0
417 89 0
500 96 0
498 143 0
480 144 0
461 157 0
489 161 0
505 163 0
511 153 0
509 137 0
505 123 0
512 65 0
512 57 0
512 46 0
512 39 0
498 63 0
477 50 0
488 9 0
475 8 0
493 1 0
507 11 0
512 24 0
3 1 0
8 6 0
0 8 0
10 21 0
61 16 0
39 17 0
31 1 0
59 1 0
14 1 0
93 1 0
82 10 0
102 1 0
105 6 0
108 1 0
108 14 0
101 16 0
97 22 0
91 18 0
74 25 0
99 40 0
90 26 0
101 29 0
110 26 0
111 40 0
110 61 0
107 71 0
107 52 0
97 69 0
96 54 0
64 60 0
90 62 0
79 58 0
89 36 0
59 30 0
18 43 0
0 28 0
43 50 0
0 54 0
16 63 0
8 84 0
0 76 0
24 81 0
38 91 0
45 71 0
62 95 0
51 98 0
28 99 0
10 95 0
19 99 0
39 101 0
0 104 0
46 106 0
12 106 0
26 108 0
61 105 0
69 107 0
55 105 0
76 101 0
70 100 0
87 98 0
81 99 0
95 99 0
91 105 0
79 106 0
107 105 0
99 109 0
96 105 0
108 100 0
101 98 0
93 94 0
99 91 0
88 91 0
83 94 0
77 95 0
83 87 0
77 83 0
89 81 0
102 77 0
108 83 0
114 55 0
115 65 0
120 61 0
124 67 0
129 69 0
126 82 0
130 77 0
118 75 0
114 84 0
113 78 0
111 89 0
119 88 0
114 98 0
113 105 0
117 109 0
122 107 0
121 101 0
124 97 0
132 89 0
125 87 0
137 87 0
132 84 0
135 94 0
135 101 0
132 105 0
144 100 0
141 104 0
139 96 0
147 94 0
139 91 0
147 78 0
143 81 0
141 77 0
133 72 0
135 79 0
140 65 0
137 69 0
144 71 0
144 58 0
146 65 0
145 48 0
137 44 0
142 41 0
147 29 0
138 35 0
133 32 0
135 39 0
133 47 0
136 51 0
130 51 0
126 48 0
126 43 0
123 54 0
118 50 0
112 47 0
117 35 0
111 33 0
120 42 0
125 38 0
129 35 0
125 19 0
126 13 0
120 13 0
118 28 0
115 21 0
114 1 0
111 8 0
120 1 0
122 7 0
128 6 0
136 1 0
131 1 0
132 10 0
135 22 0
136 28 0
137 17 0
141 28 0
143 9 0
137 8 0
140 4 0
150 6 0
152 1 0
160 1 0
169 1 0
178 7 0
168 20 0
174 14 0
161 15 0
155 10 0
148 12 0
152 35 0
169 29 0
158 40 0
163 52 0
157 67 0
170 58 0
178 63 0
176 50 0
170 43 0
179 29 0
197 17 0
182 21 0
191 25 0
193 35 0
196 45 0
209 38 0
201 54 0
208 28 0
200 28 0
207 19 0
203 12 0
210 12 0
198 10 0
191 14 0
184 13 0
184 6 0
[...]
CELL_DATA 6657
COLOR_SCALARS ColorSpace 1
0.551634
0.198693
0.28366
0.551634
0.475817
0.299346
0.453595
0.453595
0.552941
0.447059
0.464052
0.575163
0.29281
0.477124
0.445752
0.530719
0.401307
0.453595
0.547712
0.216993
0.555556
0.51634
0.313725
0.261438
0.520261
0.469281
0.551634
0.410458
0.371242
0.291503
0.495425
0.362092
0.550327
0.554248
0.551634
0.592157
0.554248
0.552941
0.555556
0.54902
0.547712
0.269281
0.551634
0.546405
0.529412
0.550327
0.4
0.550327
0.500654
0.40915
0.410458
0.428758
0.352941
0.465359
0.392157
0.401307
0.343791
0.473203
0.355556
0.550327
0.385621
0.551634
0.384314
0.413072
0.298039
0.532026
0.481046
0.462745
0.321569
0.435294
0.556863
0.355556
0.528105
0.277124
0.278431
0.394771
0.500654
0.490196
0.324183
0.551634
0.303268
0.496732
0.554248
0.503268
0.517647
0.25098
0.51634
0.603922
0.433987
0.543791
0.54902
0.183007
0.50719
0.554248
0.315033
0.554248
0.410458
0.552941
0.560784
0.522876
0.551634
0.453595
0.465359
0.552941
0.237908
0.547712
0.550327
0.394771
0.528105
0.24183
0.34902
0.444444
0.513725
0.439216
0.448366
0.535948
0.45098
0.269281
0.301961
0.315033
0.267974
0.467974
0.372549
0.47451
0.177778
0.269281
0.322876
0.318954
0.201307
0.481046
0.396078
0.414379
0.411765
0.271895
0.265359
0.560784
0.552941
0.555556
0.555556
0.552941
0.563399
0.556863
0.552941
0.554248
0.554248
0.559477
0.554248
0.551634
0.551634
0.551634
0.550327
0.555556
0.547712
0.546405
0.546405
0.552941
0.547712
0.554248
0.552941
0.545098
0.552941
0.54902
0.547712
0.550327
0.552941
0.495425
0.550327
0.54902
0.547712
0.546405
0.547712
0.547712
0.545098
0.542484
0.545098
0.550327
0.545098
0.543791
0.546405
0.552941
0.538562
0.542484
0.550327
0.554248
0.541176
0.547712
0.503268
0.462745
0.550327
0.543791
0.542484
0.545098
0.541176
0.504575
0.530719
0.543791
0.541176
0.423529
0.538562
0.496732
0.490196
0.352941
0.500654
0.488889
0.571242
0.354248
0.487582
0.501961
0.482353
0.520261
0.512418
0.430065
0.501961
0.368627
0.360784
0.477124
0.405229
0.279739
0.371242
0.373856
0.377778
0.49281
0.611765
0.169935
0.439216
0.579085
0.309804
0.405229
0.517647
0.436601
0.504575
0.597386
0.393464
0.593464
0.572549
0.334641
0.320261
0.541176
0.328105
0.447059
0.461438
0.543791
0.550327
0.551634
0.546405
0.424837
0.329412
0.389542
0.550327
0.356863
0.542484
0.389542
0.45098
0.504575
0.529412
0.326797
0.269281
0.453595
0.322876
0.559477
0.45098
0.392157
0.337255
0.435294
0.448366
0.498039
0.478431
0.490196
0.564706
0.484967
0.346405
0.504575
0.273203
0.556863
0.288889
0.410458
0.457516
0.428758
0.29281
0.546405
0.47451
0.486275
0.505882
0.350327
0.694118
0.30719
0.449673
0.515033
0.410458
0.379085
0.488889
0.267974
0.458824
0.397386
0.364706
0.295425
0.500654
0.515033
0.346405
0.291503
0.508497
0.478431
0.494118
0.508497
0.487582
0.533333
0.303268
0.49281
0.560784
0.533333
0.396078
0.415686
0.477124
0.458824
0.281046
0.410458
0.467974
0.318954
0.479739
0.54902
0.551634
0.330719
0.419608
0.360784
0.407843
0.503268
0.537255
0.512418
0.545098
0.515033
0.500654
0.547712
0.427451
0.535948
0.545098
0.534641
0.538562
0.530719
0.554248
0.552941
0.223529
0.543791
0.44183
0.521569
0.423529
0.551634
0.556863
0.554248
0.552941
0.273203
0.49281
0.466667
0.264052
0.484967
0.294118
0.552941
0.31634
0.550327
0.49281
0.198693
0.418301
0.529412
0.473203
0.554248
0.555556
0.552941
0.554248
0.543791
0.551634
0.550327
0.55817
0.551634
0.183007
0.159477
0.248366
0.559477
0.168627
0.44183
0.568627
0.326797
0.36732
0.471895
0.30719
0.335948
0.55817
0.203922
0.258824
0.291503
0.554248
0.281046
0.254902
0.373856
0.533333
0.321569
0.491503
0.513725
0.550327
0.491503
0.535948
0.546405
0.29281
0.478431
0.44183
0.373856
0.253595
0.298039
0.273203
0.261438
0.363399
0.27451
0.270588
0.248366
0.247059
0.28366
0.257516
0.439216
0.249673
0.322876
0.462745
0.524183
0.433987
0.364706
0.509804
0.518954
0.504575
0.271895
0.550327
0.552941
0.522876
0.509804
0.538562
0.467974
0.354248
0.351634
0.324183
0.51634
0.526797
0.423529
0.309804
0.426144
0.54902
0.524183
0.538562
0.550327
0.288889
0.562092
0.498039
0.59085
0.550327
0.50719
0.287582
0.286275
0.334641
0.532026
0.495425
0.460131
0.333333
0.397386
0.330719
0.460131
0.566013
0.339869
0.426144
0.332026
0.296732
0.35817
0.380392
0.256209
0.504575
0.364706
0.499346
0.471895
0.43268
0.424837
0.447059
0.321569
0.205229
0.36732
0.366013
0.584314
0.253595
0.29281
0.389542
0.376471
0.142484
0.278431
0.141176
0.185621
0.100654
0.411765
0.141176
0.176471
0.134641
0.121569
0.139869
0.128105
0.437908
0.137255
0.146405
0.142484
0.188235
0.166013
0.183007
0.315033
0.198693
0.160784
0.166013
0.159477
0.137255
0.150327
0.356863
0.299346
0.233987
0.386928
0.177778
0.278431
0.164706
0.171242
0.183007
0.312418
0.422222
0.423529
0.172549
0.487582
0.202614
0.554248
0.403922
0.328105
0.437908
0.559477
0.396078
0.569935
0.490196
0.55817
0.342484
0.32549
0.416993
0.347712
0.345098
0.351634
0.313725
0.473203
0.428758
0.305882
0.559477
0.341176
0.453595
0.333333
0.486275
0.420915
0.572549
0.551634
0.551634
0.534641
0.551634
0.551634
0.552941
0.555556
0.552941
0.551634
0.416993
0.556863
0.48366
0.555556
0.469281
0.460131
0.469281
0.495425
0.588235
0.511111
0.4
0.586928
0.461438
0.362092
0.379085
0.313725
0.192157
0.339869
0.257516
0.303268
0.30719
0.379085
0.551634
0.550327
0.440523
0.563399
0.576471
0.295425
0.560784
0.488889
0.253595
0.554248
0.559477
0.55817
0.555556
0.571242
0.228758
0.552941
0.396078
0.559477
0.394771
0.20915
0.351634
0.518954
0.56732
0.555556
0.559477
0.55817
0.556863
0.552941
0.554248
0.554248
0.556863
0.555556
0.555556
0.554248
0.556863
0.554248
0.554248
0.566013
0.551634
0.554248
0.554248
0.55817
0.550327
0.551634
0.552941
0.550327
0.54902
0.554248
0.551634
0.552941
0.54902
0.550327
0.552941
0.552941
0.54902
0.54902
0.552941
0.551634
0.551634
0.551634
0.550327
0.550327
0.552941
0.551634
0.552941
0.551634
0.551634
0.551634
0.552941
0.551634
0.554248
0.552941
0.554248
0.552941
0.552941
0.551634
0.550327
0.554248
0.552941
0.551634
0.551634
0.552941
0.552941
0.554248
0.552941
0.554248
0.554248
0.555556
0.547712
0.552941
0.551634
0.552941
0.547712
0.466667
0.54902
0.551634
0.547712
0.54902
0.539869
0.54902
0.547712
0.546405
0.547712
0.535948
0.54902
0.546405
0.54902
0.551634
0.535948
0.547712
0.552941
0.54902
0.54902
0.551634
0.552941
0.550327
0.551634
0.551634
0.552941
0.551634
0.550327
0.551634
0.550327
0.547712
0.551634
0.550327
0.543791
0.54902
0.550327
0.550327
0.54902
0.54902
0.547712
0.551634
0.546405
0.547712
0.551634
0.551634
0.547712
0.546405
0.545098
0.550327
0.550327
0.551634
0.551634
0.550327
0.552941
0.552941
0.552941
0.552941
0.551634
0.552941
0.554248
0.55817
0.554248
0.55817
0.551634
0.552941
0.555556
0.559477
0.552941
0.554248
0.552941
0.550327
0.547712
0.550327
0.552941
0.54902
0.552941
0.552941
0.554248
0.550327
0.551634
0.554248
0.534641
0.551634
0.545098
0.54902
0.547712
0.550327
0.54902
0.54902
0.547712
0.551634
0.546405
0.547712
0.546405
0.546405
0.546405
0.545098
0.547712
0.546405
0.547712
0.551634
0.54902
0.550327
0.545098
0.545098
0.547712
0.542484
0.543791
0.545098
0.543791
0.541176
0.542484
0.545098
0.543791
0.541176
0.545098
0.541176
0.543791
0.545098
0.546405
0.545098
0.543791
0.545098
0.545098
0.51634
0.545098
0.54902
0.539869
0.543791
0.535948
0.542484
0.541176
0.534641
0.479739
0.462745
0.457516
0.467974
0.461438
0.457516
0.471895
0.477124
0.460131
0.513725
0.477124
0.537255
0.482353
0.539869
0.545098
0.526797
0.534641
0.541176
0.54902
0.533333
0.517647
0.518954
0.511111
0.520261
0.511111
0.495425
0.499346
0.487582
0.512418
0.509804
0.515033
0.542484
0.543791
0.50719
0.496732
0.546405
0.545098
0.550327
0.541176
0.537255
0.550327
0.547712
0.54902
0.545098
0.545098
0.546405
0.543791
0.546405
0.543791
0.547712
0.546405
0.54902
0.545098
0.545098
0.54902
0.494118
0.509804
0.528105
0.478431
0.491503
0.464052
0.40915
0.420915
0.330719
0.279739
0.532026
0.40915
0.504575
0.423529
0.324183
0.356863
0.377778
0.362092
0.4
0.403922
0.47451
0.499346
0.416993
0.313725
0.488889
0.287582
0.486275
0.487582
0.479739
0.479739
0.484967
0.495425
0.389542
0.389542
0.406536
0.428758
0.363399
0.415686
0.452288
0.405229
0.478431
0.533333
0.437908
0.437908
0.581699
0.418301
0.364706
0.369935
0.394771
0.369935
0.48366
0.481046
0.490196
0.383007
0.416993
0.592157
0.555556
0.424837
0.435294
0.488889
0.338562
0.305882
0.286275
0.346405
0.360784
0.475817
0.386928
0.416993
0.383007
0.427451
0.532026
0.298039
0.320261
0.290196
0.335948
0.464052
0.318954
0.398693
0.402614
0.426144
0.34902
0.215686
0.481046
0.488889
0.529412
0.534641
0.543791
0.543791
0.386928
0.541176
0.539869
0.537255
0.545098
0.533333
0.457516
0.222222
0.418301
0.237908
0.55817
0.454902
0.28366
0.477124
0.436601
0.529412
0.464052
0.501961
0.48366
0.52549
0.530719
0.538562
0.537255
0.520261
0.529412
0.545098
0.538562
0.539869
0.537255
0.541176
0.532026
0.54902
0.545098
0.545098
0.54902
0.546405
0.545098
0.543791
0.543791
0.552941
0.54902
0.555556
0.550327
0.554248
0.555556
0.550327
0.556863
0.552941
0.546405
0.554248
0.550327
0.551634
0.550327
0.554248
0.555556
0.552941
0.552941
0.54902
0.547712
0.543791
0.546405
0.551634
0.547712
0.550327
0.547712
0.551634
0.550327
0.554248
0.550327
0.556863
0.422222
0.311111
0.461438
0.546405
0.452288
0.481046
0.559477
0.448366
0.317647
0.4
0.342484
0.562092
0.494118
0.296732
0.509804
0.317647
0.436601
0.54902
0.456209
0.398693
0.456209
0.449673
0.4
0.368627
0.515033
0.577778
0.458824
0.211765
0.576471
0.508497
0.369935
0.34902
0.40915
0.424837
0.529412
0.584314
0.552941
0.388235
0.334641
0.550327
0.328105
0.460131
0.436601
0.369935
0.43268
0.449673
0.362092
0.411765
0.422222
0.500654
0.338562
0.535948
0.494118
0.426144
0.546405
0.405229
0.431373
0.469281
0.270588
0.537255
0.282353
0.356863
0.371242
0.410458
0.428758
0.486275
0.436601
0.335948
0.343791
0.403922
0.359477
0.298039
0.550327
0.533333
0.326797
0.338562
0.466667
0.533333
0.501961
0.406536
0.341176
0.386928
0.318954
0.372549
0.475817
0.266667
0.270588
0.394771
0.573856
0.381699
0.491503
0.45098
0.376471
0.486275
0.405229
0.309804
0.186928
0.341176
0.501961
0.433987
0.440523
0.556863
0.410458
0.470588
0.512418
0.343791
0.433987
0.337255
0.491503
0.486275
0.512418
0.503268
0.487582
0.47451
0.419608
0.647059
0.547712
0.500654
0.291503
0.386928
0.448366
0.560784
0.326797
0.397386
0.264052
0.494118
0.488889
0.490196
0.482353
0.465359
0.369935
0.481046
0.481046
0.35817
0.498039
0.398693
0.54902
0.481046
0.427451
0.392157
0.322876
0.456209
0.443137
0.415686
0.35817
0.346405
0.231373
0.547712
0.658824
0.372549
0.321569
0.371242
0.542484
0.271895
0.457516
0.458824
0.410458
0.511111
0.32549
0.291503
0.481046
0.318954
0.449673
0.339869
0.482353
0.332026
0.262745
0.551634
0.39085
0.271895
0.35817
0.322876
0.354248
0.511111
0.296732
0.376471
0.318954
0.396078
0.545098
0.427451
0.521569
0.366013
0.373856
0.49281
0.396078
0.503268
0.402614
0.487582
0.501961
0.478431
0.495425
0.577778
0.423529
0.440523
0.532026
0.512418
0.35817
0.541176
0.394771
0.352941
0.380392
0.517647
0.505882
0.443137
0.257516
0.517647
0.34902
0.49281
0.508497
0.494118
0.47451
0.481046
0.479739
0.504575
0.505882
0.546405
0.260131
0.520261
0.524183
0.498039
0.350327
0.298039
0.371242
0.444444
0.262745
0.233987
0.522876
0.359477
0.39085
0.522876
0.528105
0.511111
0.526797
0.532026
0.521569
0.518954
0.509804
0.537255
0.524183
0.481046
0.532026
0.461438
0.373856
0.564706
0.449673
0.371242
0.376471
0.34902
0.466667
0.298039
0.464052
0.339869
0.43268
0.444444
0.512418
0.339869
0.466667
0.381699
0.50719
0.40915
0.394771
0.56732
0.555556
0.396078
0.508497
0.500654
0.381699
0.487582
0.555556
0.583007
0.56732
0.364706
0.433987
0.513725
0.505882
0.379085
0.551634
0.584314
0.490196
0.518954
0.619608
0.539869
0.270588
0.471895
0.479739
0.503268
0.522876
0.43268
0.566013
0.533333
0.535948
0.343791
0.356863
0.392157
0.303268
0.461438
0.47451
0.47451
0.465359
0.448366
0.406536
0.55817
0.524183
0.554248
0.281046
0.503268
0.420915
0.520261
0.522876
0.453595
0.426144
0.330719
0.500654
0.541176
0.529412
0.537255
0.51634
0.554248
0.448366
0.545098
0.392157
0.556863
0.554248
0.552941
0.392157
0.320261
0.556863
0.556863
0.414379
0.362092
0.518954
0.522876
0.515033
0.530719
0.54902
0.543791
0.524183
0.554248
0.534641
0.547712
0.552941
0.541176
0.552941
0.539869
0.551634
0.550327
0.551634
0.54902
0.551634
0.552941
0.554248
0.552941
0.552941
0.552941
0.554248
0.552941
0.554248
0.552941
0.552941
0.550327
0.554248
0.552941
0.554248
0.54902
0.552941
0.362092
0.551634
0.315033
0.551634
0.533333
0.551634
0.52549
0.552941
0.552941
0.418301
0.555556
0.552941
0.550327
0.501961
0.554248
0.552941
0.550327
0.551634
0.534641
0.546405
0.533333
0.534641
0.436601
0.420915
0.54902
0.379085
0.534641
0.552941
0.528105
0.555556
0.554248
0.410458
0.258824
0.299346
0.270588
0.530719
0.398693
0.219608
0.556863
0.345098
0.556863
0.503268
0.477124
0.305882
0.335948
0.47451
0.383007
0.545098
0.54902
0.547712
0.550327
0.54902
0.551634
0.550327
0.554248
0.552941
0.555556
0.552941
0.554248
0.628758
0.559477
0.30719
0.613072
0.265359
0.577778
0.359477
0.486275
0.552941
0.554248
0.573856
0.563399
0.496732
0.500654
0.559477
0.575163
0.560784
0.213072
0.305882
0.192157
0.439216
0.201307
0.220915
0.499346
0.571242
0.299346
0.467974
0.517647
0.198693
0.605229
0.503268
0.552941
0.487582
0.364706
0.577778
0.560784
0.552941
0.555556
0.554248
0.559477
0.364706
0.55817
0.562092
0.555556
0.555556
0.55817
0.556863
0.426144
0.172549
0.543791
0.562092
0.566013
0.467974
0.338562
0.469281
0.394771
0.546405
0.245752
0.355556
0.181699
0.559477
0.419608
0.168627
0.258824
0.389542
0.430065
0.329412
0.30719
0.223529
0.328105
0.491503
0.396078
0.269281
0.277124
0.499346
0.180392
0.332026
0.189542
0.377778
0.244444
0.172549
0.207843
0.192157
0.266667
0.261438
0.152941
0.233987
0.172549
0.202614
0.168627
0.183007
0.155556
0.118954
0.181699
0.160784
0.183007
0.218301
0.258824
0.254902
0.163399
0.239216
0.295425
0.203922
0.261438
0.258824
0.121569
0.171242
0.266667
0.368627
0.143791
0.156863
0.176471
0.253595
0.281046
0.298039
0.295425
0.218301
0.147712
0.315033
0.339869
0.275817
0.239216
0.223529
0.300654
0.270588
0.258824
0.275817
0.343791
0.295425
0.260131
0.281046
0.360784
0.258824
0.266667
0.513725
0.433987
0.379085
0.554248
0.552941
0.532026
0.55817
0.554248
0.556863
0.551634
0.555556
0.550327
0.562092
0.546405
0.547712
0.532026
0.320261
0.430065
0.420915
0.465359
0.422222
0.335948
0.54902
0.552941
0.54902
0.539869
0.498039
0.547712
0.541176
0.538562
0.50719
0.545098
0.537255
0.545098
0.545098
0.397386
0.554248
0.313725
0.543791
0.511111
0.237908
0.277124
0.256209
0.247059
0.299346
0.266667
0.304575
0.406536
0.43268
0.24183
0.303268
0.286275
0.303268
0.25098
0.247059
0.249673
0.239216
0.267974
0.257516
0.271895
0.384314
0.252288
0.304575
0.24183
0.239216
0.261438
0.243137
0.231373
0.202614
0.277124
0.360784
0.222222
0.460131
0.324183
0.406536
0.346405
0.354248
0.315033
0.31634
0.222222
0.371242
0.347712
0.334641
0.338562
0.281046
0.315033
0.369935
0.335948
0.224837
0.288889
0.29281
0.262745
0.427451
0.34902
0.424837
0.440523
0.379085
0.254902
0.239216
0.528105
0.244444
0.220915
0.388235
0.290196
0.298039
0.371242
0.337255
0.394771
0.443137
0.381699
0.363399
0.392157
0.334641
0.248366
0.273203
0.278431
0.265359
0.28366
0.273203
0.260131
0.270588
0.299346
0.265359
0.286275
0.32549
0.284967
0.503268
0.31634
0.406536
0.437908
0.405229
0.498039
0.545098
0.44183
0.377778
0.532026
0.518954
0.534641
0.490196
0.539869
0.550327
0.515033
0.467974
0.52549
0.499346
0.521569
0.520261
0.490196
0.515033
0.550327
0.532026
0.521569
0.532026
0.532026
0.547712
0.541176
0.541176
0.537255
0.555556
0.543791
0.526797
0.554248
0.550327
0.552941
0.546405
0.552941
0.530719
0.551634
0.552941
0.535948
0.551634
0.554248
0.550327
0.555556
0.554248
0.551634
0.550327
0.551634
0.555556
0.552941
0.555556
0.545098
0.551634
0.545098
0.550327
0.522876
0.543791
0.532026
0.542484
0.547712
0.508497
0.541176
0.50719
0.546405
0.552941
0.533333
0.494118
0.452288
0.430065
0.496732
0.461438
0.511111
0.266667
0.392157
0.538562
0.410458
0.447059
0.44183
0.359477
0.416993
0.291503
0.24183
0.356863
0.542484
0.350327
0.334641
0.368627
0.517647
0.313725
0.375163
0.309804
0.466667
0.554248
0.466667
0.28366
0.528105
0.551634
0.458824
0.27451
0.550327
0.550327
0.550327
0.551634
0.551634
0.552941
0.551634
0.55817
0.48366
0.555556
0.577778
0.551634
0.515033
0.342484
0.282353
0.405229
0.457516
0.505882
0.407843
0.415686
0.496732
0.496732
0.559477
0.575163
0.580392
0.583007
0.457516
0.513725
0.543791
0.499346
0.477124
0.479739
0.515033
0.515033
0.501961
0.505882
0.359477
0.496732
0.496732
0.420915
0.52549
0.538562
0.508497
0.392157
0.481046
0.520261
0.532026
0.551634
0.499346
0.500654
0.543791
0.372549
0.532026
0.576471
0.522876
0.530719
0.532026
0.487582
0.50719
0.569935
0.528105
0.467974
0.487582
0.464052
0.447059
0.397386
0.484967
0.44183
0.456209
0.449673
0.552941
0.560784
0.488889
0.546405
0.380392
0.360784
0.416993
0.437908
0.436601
0.464052
0.256209
0.383007
0.35817
0.401307
0.329412
0.397386
0.403922
0.475817
0.318954
0.329412
0.396078
0.398693
0.448366
0.40915
0.452288
0.462745
0.403922
0.436601
0.385621
0.433987
0.342484
0.410458
0.494118
0.39085
0.392157
0.478431
0.360784
0.333333
0.337255
0.376471
0.300654
0.308497
0.478431
0.40915
0.366013
0.423529
0.300654
0.385621
0.498039
0.505882
0.418301
0.478431
0.460131
0.484967
0.427451
0.48366
0.439216
0.31634
0.494118
0.475817
0.482353
0.437908
0.554248
0.189542
0.439216
0.294118
0.245752
0.337255
0.275817
0.10719
0.383007
0.376471
0.423529
0.261438
0.396078
0.264052
0.216993
0.20915
0.249673
0.366013
0.422222
0.364706
0.413072
0.311111
0.428758
0.45098
0.368627
0.354248
0.410458
0.350327
0.343791
0.342484
0.326797
0.362092
0.376471
0.4
0.386928
0.372549
0.335948
0.352941
0.287582
0.192157
0.294118
0.386928
0.338562
0.121569
0.258824
0.23268
0.270588
0.258824
0.330719
0.305882
0.269281
0.275817
0.270588
0.101961
0.334641
0.243137
0.233987
0.126797
0.201307
0.120261
0.129412
0.198693
0.303268
0.28366
0.227451
0.317647
0.355556
0.260131
0.284967
0.156863
0.179085
0.111111
0.10719
0.112418
0.115033
0.115033
0.130719
0.137255
0.126797
0.128105
0.11634
0.133333
0.109804
0.115033
0.137255
0.134641
0.139869
0.143791
0.12549
0.137255
0.134641
0.126797
0.14902
0.118954
0.151634
0.137255
0.2
0.171242
0.216993
0.176471
0.166013
0.175163
0.166013
0.183007
0.194771
0.194771
0.129412
0.179085
0.139869
0.133333
0.163399
0.171242
0.138562
0.184314
0.156863
0.164706
0.147712
0.166013
0.159477
0.185621
0.175163
0.134641
0.160784
0.147712
0.181699
0.181699
0.159477
0.188235
0.147712
0.180392
0.181699
0.147712
0.311111
0.25098
0.130719
0.141176
0.206536
0.113725
0.156863
0.117647
0.109804
0.313725
0.12549
0.145098
0.329412
0.141176
0.186928
0.235294
0.311111
0.264052
0.192157
0.284967
0.271895
0.266667
0.235294
0.277124
0.273203
0.202614
0.298039
0.139869
0.267974
0.245752
0.301961
0.443137
0.4
0.313725
0.290196
0.202614
0.4
0.25098
0.532026
0.183007
0.264052
0.375163
0.453595
0.152941
0.179085
0.137255
0.142484
0.15817
0.164706
0.151634
0.180392
0.431373
0.31634
0.522876
0.414379
0.610458
0.312418
0.611765
0.505882
0.484967
0.453595
0.479739
0.576471
0.403922
0.44183
0.311111
0.282353
0.184314
0.16732
0.194771
0.194771
0.159477
0.237908
0.397386
0.339869
0.517647
0.308497
0.363399
0.23268
0.271895
0.401307
0.398693
0.284967
0.172549
0.435294
0.494118
0.312418
0.196078
0.469281
0.360784
0.436601
0.324183
0.407843
0.334641
0.422222
0.462745
0.532026
0.350327
0.47451
0.564706
0.479739
0.339869
0.383007
0.440523
0.440523
0.32549
0.416993
0.535948
0.34902
0.256209
0.366013
0.265359
0.333333
0.407843
0.503268
0.411765
0.462745
0.373856
0.31634
0.359477
0.465359
0.36732
0.211765
0.430065
0.253595
0.291503
0.164706
0.284967
0.313725
0.386928
0.389542
0.39085
0.284967
0.426144
0.406536
0.495425
0.426144
0.416993
0.284967
0.418301
0.291503
0.43268
0.45098
0.368627
0.453595
0.245752
0.355556
0.343791
0.368627
0.427451
0.339869
0.458824
0.341176
0.373856
0.559477
0.444444
0.47451
0.330719
0.376471
0.226144
0.445752
0.437908
0.351634
0.308497
0.271895
0.309804
0.372549
0.301961
0.308497
0.312418
0.322876
0.270588