# vtk DataFile Version 1.0
Unstructured Grid Example
ASCII

DATASET UNSTRUCTURED_GRID
POINTS 7320 float
135 13 0
323 298 0
260 426 0
341 337 0
413 297 0
400 257 0
413 69 0
172 77 0
309 65 0
346 170 0
339 129 0
162 110 0
260 325 0
204 327 0
261 406 0
274 387 0
295 352 0
362 201 0
374 258 0
450 240 0
440 226 0
452 226 0
402 194 0
393 40 0
356 193 0
396 34 0
411 23 0
443 2 0
108 1 0
78 58 0
132 51 0
135 26 0
128 6 0
181 3 0
282 20 0
197 29 0
146 21 0
144 49 0
208 76 0
220 60 0
200 81 0
187 77 0
176 95 0
159 94 0
168 94 0
168 77 0
151 63 0
153 65 0
151 93 0
211 135 0
232 121 0
253 203 0
242 301 0
0 151 0
210 368 0
130 417 0
10 500 0
247 397 0
226 367 0
237 327 0
260 418 0
268 429 0
286 387 0
282 378 0
286 375 0
282 360 0
275 303 0
263 364 0
255 292 0
274 283 0
277 161 0
297 326 0
340 335 0
343 364 0
332 375 0
295 377 0
297 422 0
295 471 0
300 433 0
337 388 0
315 377 0
348 319 0
345 411 0
512 512 0
353 414 0
354 338 0
434 275 0
390 306 0
365 291 0
401 244 0
448 262 0
501 272 0
490 94 0
474 81 0
380 68 0
359 210 0
457 234 0
352 179 0
337 194 0
310 239 0
309 89 0
325 130 0
326 60 0
364 44 0
331 40 0
340 33 0
354 14 0
395 25 0
452 10 0
443 24 0
447 46 0
464 55 0
494 53 0
471 8 0
24 1 0
75 1 0
78 1 0
76 8 0
34 5 0
45 40 0
28 42 0
88 45 0
86 34 0
56 31 0
104 10 0
89 32 0
118 47 0
119 41 0
138 9 0
134 2 0
129 8 0
96 5 0
100 1 0
104 1 0
122 2 0
143 4 0
159 8 0
165 25 0
163 21 0
169 11 0
170 1 0
210 1 0
297 21 0
262 5 0
175 10 0
183 30 0
297 33 0
221 55 0
209 45 0
191 46 0
164 55 0
167 43 0
182 33 0
149 35 0
146 51 0
153 54 0
192 91 0
194 103 0
220 106 0
198 105 0
214 69 0
274 86 0
304 72 0
233 90 0
230 102 0
222 104 0
258 118 0
262 116 0
278 139 0
273 145 0
253 120 0
241 145 0
240 136 0
253 125 0
202 109 0
238 129 0
229 129 0
183 107 0
182 103 0
150 97 0
168 101 0
189 103 0
178 93 0
190 85 0
177 57 0
164 67 0
152 68 0
163 96 0
106 69 0
117 62 0
61 56 0
4 60 0
14 61 0
3 71 0
96 74 0
115 77 0
113 82 0
89 91 0
41 80 0
192 167 0
244 289 0
245 299 0
253 296 0
249 148 0
268 303 0
273 279 0
272 310 0
264 309 0
261 305 0
268 325 0
270 324 0
266 353 0
265 345 0
264 342 0
260 351 0
260 347 0
262 310 0
251 322 0
233 329 0
253 341 0
175 365 0
243 382 0
240 395 0
237 396 0
218 389 0
0 498 0
19 504 0
25 513 0
235 469 0
171 440 0
240 427 0
256 425 0
248 444 0
266 437 0
270 437 0
263 408 0
269 390 0
253 395 0
251 385 0
244 361 0
245 353 0
264 354 0
276 384 0
277 367 0
281 390 0
279 398 0
274 410 0
275 420 0
281 432 0
282 500 0
281 446 0
281 419 0
292 426 0
290 442 0
302 447 0
300 430 0
303 427 0
306 387 0
304 389 0
287 398 0
283 381 0
301 378 0
306 372 0
305 352 0
300 297 0
291 311 0
289 338 0
291 346 0
289 354 0
279 364 0
277 342 0
273 339 0
273 320 0
279 330 0
285 255 0
274 272 0
277 175 0
280 155 0
288 170 0
296 164 0
290 164 0
299 252 0
303 243 0
306 182 0
304 178 0
308 248 0
307 273 0
311 284 0
310 280 0
323 269 0
328 247 0
330 245 0
353 262 0
351 289 0
324 292 0
334 300 0
343 296 0
353 301 0
349 309 0
344 316 0
327 317 0
319 299 0
326 296 0
309 298 0
315 306 0
317 307 0
318 322 0
327 344 0
327 358 0
309 354 0
308 359 0
312 389 0
321 399 0
315 434 0
329 411 0
329 406 0
322 402 0
330 366 0
334 389 0
337 419 0
339 404 0
343 377 0
351 338 0
346 352 0
345 338 0
332 328 0
332 320 0
337 328 0
364 315 0
370 301 0
372 340 0
368 336 0
361 347 0
353 350 0
357 367 0
379 439 0
364 391 0
372 353 0
397 330 0
388 347 0
411 388 0
401 316 0
401 310 0
407 304 0
390 302 0
386 304 0
388 289 0
420 288 0
448 287 0
454 273 0
455 267 0
444 266 0
434 272 0
435 278 0
426 284 0
417 278 0
406 284 0
407 270 0
410 271 0
430 267 0
424 265 0
402 262 0
362 257 0
387 255 0
422 244 0
452 246 0
440 251 0
463 260 0
479 260 0
475 247 0
489 245 0
512 239 0
470 242 0
413 234 0
444 236 0
458 230 0
484 213 0
505 92 0
451 83 0
419 206 0
453 229 0
370 122 0
411 84 0
365 77 0
353 86 0
358 125 0
356 196 0
376 214 0
387 208 0
410 243 0
367 235 0
357 224 0
351 203 0
350 161 0
324 171 0
340 204 0
329 214 0
315 239 0
314 207 0
310 234 0
312 176 0
317 191 0
323 167 0
331 144 0
312 149 0
322 143 0
329 106 0
335 92 0
337 77 0
343 88 0
344 154 0
352 150 0
353 132 0
349 92 0
378 58 0
379 41 0
344 37 0
350 59 0
349 70 0
326 50 0
322 54 0
307 50 0
314 36 0
334 44 0
318 28 0
310 29 0
313 18 0
321 20 0
326 15 0
351 11 0
360 14 0
339 22 0
396 31 0
373 27 0
360 8 0
408 1 0
430 1 0
425 2 0
415 16 0
414 7 0
413 37 0
414 49 0
402 67 0
428 40 0
423 21 0
425 19 0
464 62 0
447 74 0
512 75 0
487 74 0
474 29 0
504 9 0
478 24 0
468 22 0
434 1 0
459 1 0
461 2 0
51 1 0
39 1 0
62 6 0
80 3 0
71 1 0
90 1 0
97 2 0
108 7 0
104 7 0
98 4 0
88 8 0
98 16 0
107 19 0
81 18 0
76 17 0
42 19 0
59 16 0
67 13 0
30 8 0
34 13 0
23 17 0
26 23 0
61 26 0
67 34 0
40 35 0
9 28 0
0 39 0
18 54 0
51 52 0
55 49 0
67 39 0
95 33 0
92 43 0
101 51 0
106 48 0
110 47 0
99 30 0
89 29 0
78 28 0
68 27 0
73 23 0
114 21 0
115 36 0
134 36 0
131 42 0
114 40 0
114 44 0
121 44 0
120 50 0
127 53 0
127 49 0
130 46 0
147 45 0
136 47 0
151 50 0
150 47 0
153 42 0
147 41 0
140 40 0
134 41 0
134 32 0
143 36 0
145 32 0
152 30 0
151 27 0
147 11 0
149 19 0
146 24 0
142 16 0
132 21 0
130 18 0
118 15 0
120 12 0
132 14 0
127 9 0
125 6 0
123 5 0
126 1 0
130 1 0
137 1 0
139 3 0
132 11 0
150 9 0
141 8 0
147 7 0
159 1 0
162 1 0
172 9 0
169 3 0
164 2 0
165 11 0
160 20 0
174 28 0
171 27 0
167 17 0
178 13 0
175 18 0
179 27 0
180 25 0
188 20 0
186 8 0
178 6 0
178 3 0
177 1 0
180 1 0
186 1 0
189 1 0
190 4 0
209 6 0
195 4 0
198 1 0
286 1 0
297 1 0
311 3 0
299 7 0
288 8 0
286 5 0
298 12 0
307 17 0
309 24 0
304 23 0
288 21 0
216 26 0
283 10 0
219 9 0
197 11 0
193 19 0
201 25 0
193 33 0
195 35 0
214 39 0
202 31 0
275 30 0
293 30 0
305 30 0
316 34 0
308 40 0
299 44 0
304 51 0
316 48 0
301 52 0
295 56 0
281 51 0
216 51 0
222 50 0
215 47 0
199 47 0
204 48 0
213 54 0
184 56 0
182 53 0
177 49 0
186 42 0
193 44 0
191 37 0
186 31 0
187 28 0
179 31 0
183 37 0
176 41 0
168 40 0
168 30 0
164 31 0
154 39 0
165 40 0
160 40 0
171 51 0
176 46 0
175 55 0
170 54 0
160 52 0
212 63 0
213 58 0
214 73 0
205 70 0
204 76 0
203 84 0
203 94 0
205 107 0
209 107 0
207 88 0
225 96 0
220 100 0
230 105 0
227 98 0
228 93 0
230 82 0
223 78 0
222 86 0
218 74 0
229 74 0
234 73 0
234 60 0
246 76 0
251 80 0
247 67 0
263 64 0
307 56 0
309 59 0
317 63 0
304 65 0
277 76 0
266 78 0
291 95 0
315 83 0
316 101 0
256 102 0
249 104 0
249 96 0
244 93 0
242 85 0
237 81 0
238 84 0
237 106 0
265 117 0
261 135 0
272 130 0
266 124 0
268 116 0
275 114 0
290 130 0
294 133 0
281 131 0
275 134 0
289 140 0
294 140 0
311 142 0
305 144 0
292 145 0
289 144 0
277 142 0
278 136 0
264 136 0
261 138 0
262 147 0
254 140 0
251 143 0
249 137 0
249 129 0
260 128 0
259 121 0
250 120 0
257 115 0
241 116 0
242 120 0
243 125 0
233 114 0
230 112 0
224 115 0
216 115 0
203 116 0
220 124 0
222 120 0
230 123 0
238 132 0
233 127 0
233 141 0
191 126 0
188 112 0
186 109 0
182 111 0
184 128 0
175 118 0
159 115 0
156 111 0
174 114 0
179 115 0
177 98 0
163 99 0
159 83 0
165 84 0
173 94 0
186 87 0
178 88 0
186 104 0
187 99 0
188 92 0
194 89 0
191 81 0
176 82 0
176 75 0
197 77 0
199 75 0
191 73 0
199 69 0
202 58 0
185 66 0
181 71 0
179 74 0
168 61 0
174 58 0
168 57 0
163 60 0
162 62 0
156 63 0
166 62 0
174 66 0
175 73 0
163 70 0
160 68 0
114 74 0
111 73 0
118 68 0
140 67 0
150 71 0
153 60 0
147 57 0
142 56 0
117 57 0
113 65 0
59 62 0
111 56 0
10 58 0
40 59 0
40 66 0
33 69 0
87 70 0
93 69 0
105 75 0
90 76 0
11 72 0
0 81 0
13 81 0
111 78 0
81 76 0
101 76 0
123 78 0
152 78 0
154 83 0
146 89 0
141 86 0
132 89 0
139 95 0
146 97 0
151 127 0
150 115 0
142 104 0
133 126 0
105 92 0
136 89 0
32 123 0
92 138 0
66 140 0
26 157 0
117 147 0
216 278 0
186 227 0
130 270 0
226 297 0
219 304 0
233 306 0
243 294 0
229 279 0
252 292 0
248 302 0
258 304 0
253 303 0
258 287 0
259 250 0
252 279 0
251 270 0
246 156 0
248 232 0
259 151 0
262 267 0
267 276 0
270 272 0
271 177 0
272 157 0
275 147 0
277 157 0
279 215 0
279 277 0
274 265 0
273 297 0
274 289 0
279 303 0
276 300 0
273 305 0
271 295 0
271 290 0
272 286 0
268 292 0
266 298 0
266 301 0
257 307 0
259 312 0
262 321 0
259 317 0
263 312 0
265 311 0
274 313 0
275 317 0
267 314 0
265 321 0
266 338 0
276 330 0
279 358 0
278 340 0
268 348 0
264 349 0
260 339 0
262 332 0
256 325 0
256 333 0
258 346 0
248 358 0
247 355 0
245 344 0
245 330 0
256 339 0
254 319 0
250 315 0
253 311 0
246 308 0
250 324 0
244 327 0
235 321 0
238 315 0
234 316 0
230 327 0
180 328 0
229 351 0
233 334 0
235 353 0
242 357 0
240 359 0
238 356 0
233 361 0
234 369 0
234 366 0
248 361 0
237 360 0
248 366 0
253 364 0
256 369 0
251 367 0
250 369 0
245 370 0
247 377 0
250 388 0
248 385 0
244 394 0
244 380 0
244 375 0
242 372 0
220 371 0
233 373 0
200 382 0
234 397 0
240 399 0
240 414 0
240 417 0
221 412 0
3 491 0
204 513 0
183 513 0
235 497 0
240 437 0
229 434 0
248 428 0
246 430 0
250 485 0
252 434 0
251 424 0
253 411 0
248 417 0
247 420 0
246 411 0
250 397 0
253 403 0
257 396 0
262 403 0
264 412 0
261 409 0
256 414 0
263 415 0
261 435 0
266 441 0
263 433 0
267 433 0
274 413 0
270 433 0
275 427 0
277 418 0
278 410 0
279 407 0
273 408 0
268 409 0
275 395 0
278 396 0
279 403 0
276 393 0
277 386 0
271 386 0
269 387 0
272 394 0
263 391 0
261 390 0
256 392 0
261 385 0
266 386 0
268 385 0
265 382 0
256 376 0
258 363 0
260 365 0
264 372 0
265 366 0
266 371 0
267 377 0
273 374 0
276 373 0
270 364 0
283 343 0
281 348 0
292 343 0
294 341 0
295 338 0
298 340 0
298 337 0
296 343 0
296 346 0
296 349 0
294 355 0
296 357 0
298 369 0
294 375 0
292 368 0
286 382 0
291 371 0
284 358 0
282 363 0
283 371 0
281 383 0
282 387 0
283 401 0
286 408 0
283 404 0
280 409 0
280 414 0
282 415 0
279 513 0
287 421 0
287 415 0
287 412 0
291 416 0
290 418 0
297 440 0
298 434 0
298 431 0
297 414 0
294 408 0
288 410 0
293 391 0
294 405 0
295 387 0
300 413 0
308 406 0
307 427 0
304 425 0
302 420 0
301 435 0
303 497 0
308 442 0
304 433 0
308 430 0
309 432 0
313 459 0
313 444 0
315 437 0
315 431 0
314 424 0
310 428 0
309 424 0
309 419 0
310 408 0
312 410 0
313 385 0
316 369 0
304 393 0
308 400 0
313 402 0
304 397 0
304 385 0
301 399 0
299 379 0
299 374 0
303 376 0
311 359 0
303 368 0
301 334 0
[...]
CELL_DATA 14454
COLOR_SCALARS ColorSpace 1
0.355556
0.261438
0.243137
0.282353
0.341176
0.290196
0.35817
0.410458
0.364706
0.288889
0.308497
0.462745
0.278431
0.552941
0.435294
0.43268
0.216993
0.284967
0.380392
0.172549
0.431373
0.521569
0.524183
0.552941
0.547712
0.313725
0.380392
0.287582
0.445752
0.284967
0.326797
0.220915
0.290196
0.396078
0.339869
0.312418
0.440523
0.273203
0.243137
0.55817
0.176471
0.296732
0.422222
0.284967
0.320261
0.39085
0.355556
0.552941
0.334641
0.277124
0.291503
0.192157
0.267974
0.236601
0.356863
0.475817
0.29281
0.423529
0.304575
0.504575
0.392157
0.366013
0.32549
0.236601
0.31634
0.222222
0.30719
0.521569
0.180392
0.350327
0.458824
0.304575
0.461438
0.415686
0.369935
0.236601
0.132026
0.308497
0.30719
0.291503
0.256209
0.321569
0.335948
0.345098
0.343791
0.337255
0.355556
0.288889
0.581699
0.35817
0.456209
0.381699
0.515033
0.305882
0.402614
0.533333
0.264052
0.305882
0.315033
0.44183
0.28366
0.384314
0.54902
0.520261
0.373856
0.515033
0.333333
0.35817
0.462745
0.332026
0.542484
0.397386
0.354248
0.407843
0.51634
0.413072
0.281046
0.414379
0.288889
0.345098
0.486275
0.458824
0.397386
0.347712
0.375163
0.222222
0.362092
0.384314
0.317647
0.333333
0.535948
0.270588
0.347712
0.346405
0.535948
0.494118
0.465359
0.559477
0.354248
0.282353
0.550327
0.277124
0.311111
0.298039
0.311111
0.315033
0.51634
0.20915
0.371242
0.345098
0.482353
0.580392
0.375163
0.253595
0.556863
0.311111
0.377778
0.359477
0.512418
0.298039
0.389542
0.335948
0.420915
0.249673
0.466667
0.347712
0.362092
0.611765
0.427451
0.275817
0.475817
0.28366
0.346405
0.388235
0.422222
0.422222
0.313725
0.235294
0.521569
0.499346
0.343791
0.311111
0.317647
0.495425
0.299346
0.397386
0.54902
0.298039
0.526797
0.330719
0.205229
0.560784
0.45098
0.560784
0.301961
0.532026
0.266667
0.345098
0.346405
0.311111
0.270588
0.294118
0.317647
0.32549
0.270588
0.377778
0.315033
0.308497
0.386928
0.271895
0.301961
0.318954
0.305882
0.291503
0.47451
0.295425
0.275817
0.30719
0.216993
0.298039
0.239216
0.318954
0.185621
0.164706
0.290196
0.304575
0.243137
0.261438
0.273203
0.475817
0.240523
0.284967
0.312418
0.261438
0.326797
0.329412
0.354248
0.262745
0.352941
0.262745
0.298039
0.281046
0.284967
0.467974
0.416993
0.35817
0.422222
0.424837
0.368627
0.403922
0.339869
0.352941
0.252288
0.287582
0.30719
0.35817
0.23268
0.308497
0.329412
0.401307
0.498039
0.244444
0.264052
0.352941
0.419608
0.373856
0.403922
0.152941
0.296732
0.36732
0.346405
0.203922
0.291503
0.129412
0.347712
0.27451
0.360784
0.179085
0.372549
0.201307
0.273203
0.172549
0.257516
0.388235
0.207843
0.180392
0.146405
0.362092
0.447059
0.376471
0.296732
0.388235
0.256209
0.405229
0.335948
0.529412
0.350327
0.488889
0.362092
0.414379
0.281046
0.324183
0.338562
0.360784
0.392157
0.362092
0.560784
0.254902
0.220915
0.309804
0.164706
0.176471
0.185621
0.265359
0.213072
0.223529
0.354248
0.343791
0.364706
0.282353
0.175163
0.266667
0.273203
0.342484
0.328105
0.322876
0.362092
0.356863
0.312418
0.461438
0.555556
0.522876
0.562092
0.379085
0.345098
0.320261
0.333333
0.346405
0.332026
0.393464
0.471895
0.328105
0.308497
0.265359
0.29281
0.360784
0.554248
0.318954
0.287582
0.278431
0.34902
0.267974
0.324183
0.24183
0.261438
0.389542
0.304575
0.371242
0.34902
0.345098
0.342484
0.426144
0.313725
0.281046
0.337255
0.270588
0.524183
0.437908
0.282353
0.295425
0.248366
0.313725
0.372549
0.282353
0.383007
0.346405
0.39085
0.371242
0.355556
0.4
0.498039
0.35817
0.308497
0.564706
0.555556
0.537255
0.524183
0.462745
0.384314
0.411765
0.31634
0.569935
0.560784
0.541176
0.269281
0.248366
0.299346
0.275817
0.288889
0.447059
0.303268
0.566013
0.405229
0.279739
0.265359
0.334641
0.308497
0.332026
0.471895
0.606536
0.279739
0.269281
0.479739
0.31634
0.354248
0.430065
0.31634
0.47451
0.265359
0.397386
0.328105
0.521569
0.32549
0.305882
0.312418
0.511111
0.398693
0.388235
0.362092
0.436601
0.566013
0.496732
0.505882
0.499346
0.508497
0.465359
0.454902
0.466667
0.462745
0.482353
0.418301
0.484967
0.500654
0.49281
0.543791
0.333333
0.45098
0.385621
0.469281
0.309804
0.482353
0.304575
0.356863
0.359477
0.443137
0.454902
0.254902
0.393464
0.261438
0.339869
0.373856
0.312418
0.343791
0.466667
0.291503
0.279739
0.321569
0.286275
0.392157
0.300654
0.551634
0.296732
0.4
0.343791
0.449673
0.515033
0.470588
0.47451
0.363399
0.383007
0.32549
0.482353
0.215686
0.490196
0.479739
0.305882
0.326797
0.215686
0.585621
0.577778
0.369935
0.456209
0.639216
0.375163
0.326797
0.423529
0.380392
0.440523
0.313725
0.311111
0.206536
0.299346
0.461438
0.227451
0.355556
0.36732
0.230065
0.473203
0.375163
0.31634
0.453595
0.466667
0.470588
0.457516
0.260131
0.347712
0.281046
0.311111
0.352941
0.266667
0.341176
0.343791
0.315033
0.575163
0.300654
0.458824
0.324183
0.402614
0.377778
0.44183
0.405229
0.490196
0.322876
0.25098
0.537255
0.384314
0.559477
0.300654
0.478431
0.371242
0.517647
0.27451
0.223529
0.322876
0.352941
0.406536
0.547712
0.547712
0.564706
0.384314
0.43268
0.248366
0.389542
0.354248
0.48366
0.666667
0.526797
0.36732
0.453595
0.49281
0.291503
0.424837
0.598693
0.406536
0.332026
0.248366
0.320261
0.51634
0.179085
0.346405
0.478431
0.439216
0.267974
0.444444
0.4
0.500654
0.486275
0.313725
0.439216
0.248366
0.454902
0.277124
0.691503
0.253595
0.354248
0.4
0.466667
0.534641
0.447059
0.433987
0.457516
0.28366
0.312418
0.313725
0.281046
0.252288
0.284967
0.286275
0.290196
0.379085
0.479739
0.337255
0.278431
0.440523
0.657516
0.248366
0.352941
0.359477
0.256209
0.311111
0.486275
0.559477
0.313725
0.598693
0.296732
0.440523
0.339869
0.351634
0.368627
0.529412
0.470588
0.501961
0.49281
0.351634
0.237908
0.343791
0.552941
0.288889
0.352941
0.312418
0.332026
0.287582
0.245752
0.504575
0.556863
0.282353
0.300654
0.267974
0.376471
0.312418
0.258824
0.394771
0.352941
0.32549
0.420915
0.31634
0.309804
0.291503
0.445752
0.260131
0.479739
0.301961
0.328105
0.505882
0.420915
0.377778
0.501961
0.501961
0.30719
0.300654
0.311111
0.449673
0.460131
0.354248
0.491503
0.31634
0.411765
0.275817
0.296732
0.294118
0.312418
0.315033
0.414379
0.317647
0.295425
0.426144
0.290196
0.309804
0.376471
0.50719
0.277124
0.436601
0.27451
0.298039
0.364706
0.295425
0.252288
0.260131
0.420915
0.184314
0.264052
0.257516
0.291503
0.273203
0.258824
0.534641
0.338562
0.471895
0.433987
0.384314
0.290196
0.339869
0.343791
0.471895
0.398693
0.517647
0.312418
0.403922
0.431373
0.537255
0.586928
0.4
0.471895
0.401307
0.505882
0.356863
0.321569
0.375163
0.300654
0.543791
0.533333
0.49281
0.333333
0.456209
0.512418
0.51634
0.265359
0.543791
0.254902
0.452288
0.220915
0.244444
0.366013
0.4
0.261438
0.534641
0.308497
0.532026
0.547712
0.269281
0.368627
0.266667
0.219608
0.396078
0.375163
0.475817
0.28366
0.278431
0.210458
0.239216
0.19085
0.334641
0.228758
0.159477
0.291503
0.478431
0.422222
0.435294
0.427451
0.554248
0.518954
0.467974
0.59085
0.192157
0.402614
0.486275
0.56732
0.482353
0.43268
0.435294
0.296732
0.444444
0.393464
0.235294
0.324183
0.566013
0.324183
0.39085
0.551634
0.311111
0.547712
0.554248
0.254902
0.290196
0.560784
0.430065
0.228758
0.168627
0.260131
0.173856
0.396078
0.298039
0.368627
0.155556
0.235294
0.160784
0.269281
0.197386
0.235294
0.222222
0.205229
0.341176
0.160784
0.172549
0.159477
0.173856
0.206536
0.269281
0.269281
0.201307
0.277124
0.30719
0.330719
0.30719
0.301961
0.228758
0.338562
0.277124
0.260131
0.287582
0.237908
0.223529
0.265359
0.261438
0.24183
0.237908
0.27451
0.356863
0.219608
0.286275
0.270588
0.2
0.298039
0.322876
0.205229
0.368627
0.231373
0.262745
0.172549
0.216993
0.312418
0.278431
0.261438
0.329412
0.291503
0.299346
0.308497
0.379085
0.313725
0.295425
0.356863
0.343791
0.338562
0.188235
0.256209
0.312418
0.34902
0.335948
0.338562
0.265359
0.333333
0.389542
0.296732
0.256209
0.303268
0.381699
0.324183
0.377778
0.369935
0.262745
0.34902
0.350327
0.299346
0.267974
0.303268
0.29281
0.301961
0.288889
0.308497
0.308497
0.273203
0.264052
0.304575
0.216993
0.24183
0.296732
0.431373
0.230065
0.287582
0.196078
0.14902
0.248366
0.236601
0.296732
0.249673
0.203922
0.258824
0.265359
0.271895
0.252288
0.315033
0.373856
0.351634
0.202614
0.379085
0.288889
0.273203
0.236601
0.266667
0.335948
0.247059
0.337255
0.309804
0.290196
0.28366
0.282353
0.279739
0.262745
0.275817
0.257516
0.281046
0.286275
0.25098
0.27451
0.271895
0.264052
0.252288
0.248366
0.311111
0.290196
0.295425
0.27451
0.282353
0.337255
0.273203
0.266667
0.244444
0.273203
0.266667
0.290196
0.244444
0.313725
0.328105
0.322876
0.299346
0.308497
0.328105
0.176471
0.279739
0.341176
0.401307
0.300654
0.337255
0.34902
0.439216
0.301961
0.332026
0.181699
0.36732
0.273203
0.317647
0.298039
0.317647
0.281046
0.277124
0.282353
0.312418
0.397386
0.258824
0.435294
0.291503
0.495425
0.389542
0.537255
0.28366
0.346405
0.334641
0.318954
0.369935
0.414379
0.35817
0.287582
0.282353
0.39085
0.415686
0.416993
0.43268
0.488889
0.572549
0.563399
0.301961
0.518954
0.375163
0.389542
0.333333
0.397386
0.369935
0.478431
0.366013
0.488889
0.31634
0.383007
0.55817
0.346405
0.490196
0.475817
0.376471
0.447059
0.415686
0.436601
0.376471
0.4
0.405229
0.406536
0.393464
0.334641
0.379085
0.469281
0.385621
0.496732
0.394771
0.397386
0.559477
0.415686
0.356863
0.359477
0.376471
0.394771
0.364706
0.304575
0.31634
0.360784
0.402614
0.337255
0.383007
0.332026
0.320261
0.281046
0.354248
0.343791
0.350327
0.386928
0.487582
0.380392
0.330719
0.332026
0.266667
0.329412
0.338562
0.403922
0.343791
0.339869
0.228758
0.25098
0.166013
0.337255
0.326797
0.362092
0.201307
0.321569
0.179085
0.343791
0.369935
0.364706
0.228758
0.360784
0.362092
0.424837
0.345098
0.388235
0.311111
0.218301
0.346405
0.338562
0.384314
0.360784
0.321569
0.35817
0.296732
0.257516
0.249673
0.177778
0.339869
0.237908
0.185621
0.360784
0.230065
0.146405
0.151634
0.141176
0.198693
0.197386
0.248366
0.139869
0.120261
0.118954
0.322876
0.278431
0.324183
0.330719
0.362092
0.25098
0.16732
0.176471
0.181699
0.146405
0.315033
0.235294
0.252288
0.244444
0.410458
0.260131
0.275817
0.317647
0.226144
0.192157
0.192157
0.235294
0.169935
0.176471
0.129412
0.145098
0.184314
0.122876
0.273203
0.202614
0.218301
0.341176
0.300654
0.214379
0.202614
0.177778
0.278431
0.329412
0.203922
0.14902
0.189542
0.254902
0.188235
0.192157
0.230065
0.303268
0.308497
0.226144
0.256209
0.30719
0.30719
0.29281
0.224837
0.235294
0.223529
0.23268
0.169935
0.219608
0.181699
0.240523
0.278431
0.185621
0.235294
0.223529
0.205229
0.196078
0.388235
0.342484
0.194771
0.193464
0.203922
0.403922
0.260131
0.305882
0.418301
0.253595
0.318954
0.366013
0.424837
0.333333
0.227451
0.351634
0.194771
0.168627
0.271895
0.179085
0.328105
0.330719
0.290196
0.360784
0.368627
0.373856
0.341176
0.341176
0.352941
0.351634
0.377778
0.304575
0.413072
0.407843
0.322876
0.405229
0.423529
0.403922
0.270588
0.397386
0.309804
0.30719
0.338562
0.339869
0.346405
0.36732
0.449673
0.373856
0.407843
0.401307
0.363399
0.454902
0.210458
0.231373
0.181699
0.260131
0.27451
0.350327
0.233987
0.214379
0.194771
0.339869
0.30719
0.233987
0.312418
0.253595
0.266667
0.339869
0.347712
0.4
0.359477
0.213072
0.25098
0.258824
0.35817
0.29281
0.369935
0.396078
0.257516
0.176471
0.279739
0.298039
0.166013
0.275817
0.324183
0.196078
0.239216
0.372549
0.240523
0.220915
0.154248
0.216993
0.213072
0.28366
0.160784
0.183007
0.231373
0.328105
0.171242
0.278431
0.201307
0.184314
0.173856
0.206536
0.267974
0.249673
0.284967
0.312418
0.248366
0.220915
0.223529
0.203922
0.192157
0.193464
0.16732
0.176471
0.146405
0.185621
0.154248
0.343791
0.193464
0.192157
0.24183
0.193464
0.352941
0.284967
0.155556
0.290196
0.267974
0.231373
0.224837
0.376471
0.284967
0.301961
0.31634
0.265359
0.356863
0.333333
0.355556
0.375163
0.342484
0.509804
0.180392
0.326797
0.394771
0.244444
0.339869
0.362092
0.394771
0.180392
0.373856
0.156863
0.443137
0.278431
0.396078
0.299346
0.294118
0.410458
0.496732
0.29281
0.347712
0.343791
0.39085
0.14902
0.397386
0.381699
0.245752
0.411765
0.271895
0.30719
0.313725
0.256209
0.364706
0.471895
0.277124
0.397386
0.279739
0.392157
0.420915
0.568627
0.335948
0.372549
0.424837
0.456209
0.375163
0.345098
0.279739
0.350327
0.346405
0.219608
0.36732
0.380392
0.324183
0.346405
0.350327
0.31634
0.308497
0.286275
0.277124
0.240523
0.339869
0.273203
0.381699
0.305882
0.411765
0.318954
0.343791
0.410458
0.301961
0.317647
0.533333
0.32549
0.313725
0.566013
0.299346
0.304575
0.346405
0.28366
0.346405
0.31634
0.270588
0.303268
0.324183
0.559477
0.562092
0.479739
0.410458
0.334641
0.405229
0.346405
0.326797
0.564706
0.560784
0.486275
0.560784
0.315033
0.554248
0.290196
0.491503
0.560784
0.334641
0.309804
0.490196
0.342484
0.27451
0.287582
0.282353
0.30719
0.347712
0.309804
0.243137
0.371242
0.326797
0.351634
0.372549
0.228758
0.269281
0.355556
0.337255
0.299346
0.282353
0.339869
0.372549
0.443137
0.341176
0.377778
0.320261
0.40915
0.337255
0.422222
0.342484
0.29281
0.240523
0.257516
0.166013
0.286275
0.271895
0.261438
0.177778
0.267974
0.291503
0.248366
0.329412
0.244444
0.31634
0.369935
0.351634
0.427451
0.426144
0.342484
0.416993
0.35817
0.352941
0.381699
0.385621
0.35817
0.350327
0.298039
0.350327
0.262745
0.265359
0.355556
0.406536
0.322876
0.320261
0.384314
0.24183
0.270588
0.34902
0.305882
0.427451
0.296732
0.376471
0.309804
0.249673
0.281046
0.384314
0.347712
0.500654
0.346405
0.381699
0.35817
0.456209
0.301961
0.431373
0.564706
0.267974
0.318954
0.168627
0.386928
0.330719
0.333333
0.291503
0.273203
0.30719
0.27451
0.28366
0.333333
0.270588
0.312418
0.277124
0.337255
0.433987
0.504575
0.373856
0.413072
0.491503
0.351634
0.454902
0.51634
0.321569
0.413072
0.440523
0.473203
0.355556
0.51634
0.368627
0.470588
0.44183
0.410458
0.447059
0.443137
0.245752
0.277124
0.500654
0.343791
0.321569
0.512418
0.39085
0.43268
0.328105
0.512418
0.426144
0.511111
0.364706
0.424837
0.368627
0.526797
0.562092
0.505882
0.431373
0.551634
0.466667
0.545098
0.495425
0.543791
0.517647
0.443137
0.593464
0.45098
0.546405
0.551634
0.55817
0.552941
0.414379
0.554248
0.475817
0.550327
0.551634
0.469281
0.517647
0.520261
0.556863
0.528105
0.496732
0.530719
0.362092
0.524183
0.526797
0.52549
0.380392
0.477124
0.528105
0.534641
0.528105
0.275817
0.368627
0.337255
0.571242
0.541176
0.381699
0.458824
0.315033
0.284967
0.383007
0.545098
0.35817
0.467974
0.385621
0.533333
0.40915
0.559477
0.469281
0.550327
0.537255
0.495425
0.559477
0.534641
0.45098
0.530719
0.563399
0.43268
0.352941
0.551634
0.554248
0.411765
0.559477
0.28366
0.29281
0.45098
0.576471
0.522876
0.55817
0.405229
0.322876
0.465359
0.354248
0.652288
0.550327
0.330719
0.504575
0.239216
0.583007
0.537255
0.554248
0.461438
0.279739
0.564706
0.403922
0.335948
0.266667
0.284967
0.315033
0.300654
0.258824
0.368627
0.311111
0.439216
0.347712
0.424837
0.424837
0.577778
0.418301
0.352941
0.31634
0.290196
0.369935
0.286275
0.320261
0.236601
0.321569
0.267974
0.313725
0.545098
0.334641
0.300654
0.369935
0.253595
0.366013
0.258824
0.369935
0.375163
0.388235
0.309804
0.244444
0.556863
0.32549
0.294118
0.369935
0.266667
0.339869
0.372549
0.424837
0.45098
0.266667
0.320261
0.301961
0.264052
0.337255
0.31634
0.27451
0.326797
0.29281
0.326797
0.295425
0.515033
0.360784
0.322876
0.346405
0.27451
0.29281
0.423529
0.304575
0.326797
0.355556
0.564706
0.546405
0.377778
0.320261
0.296732
0.256209
0.422222
0.313725
0.51634
0.260131
0.424837
0.522876
0.453595
0.452288
0.324183
0.522876
0.513725
0.515033
0.430065
0.469281
0.267974
0.453595
0.362092
0.324183
0.464052
0.518954
0.288889
0.248366
0.313725
0.406536
0.613072
0.44183
0.380392
0.504575
0.437908
0.311111
0.394771
0.385621
0.520261
0.31634
0.31634
0.315033
0.592157
0.312418
0.569935
0.407843
0.406536
0.496732
0.301961
0.383007
0.369935
0.406536
0.393464
0.543791
0.491503
0.360784
0.290196
0.328105
0.354248
0.495425
0.427451
0.389542
0.373856
0.355556
0.352941
0.475817
0.504575
0.51634
0.45098
0.356863
0.503268
0.504575
0.499346
0.503268
0.530719
0.568627
0.288889
0.610458
0.384314
0.273203
0.356863
0.504575
0.462745
0.534641
0.481046
0.478431
0.478431
0.49281
0.491503
0.490196
0.423529
0.380392
0.261438
0.214379
0.233987
0.48366
0.490196
0.572549
0.377778
0.228758
0.282353
0.312418
0.318954
0.36732
0.401307
0.477124
0.224837
0.462745
0.352941
0.477124
0.461438
0.346405
0.393464
0.393464
0.576471
0.396078
0.48366
0.342484
0.410458
0.248366
0.321569
0.311111
0.218301
0.414379
0.284967
0.386928
0.423529
0.486275
0.589542
0.416993
0.385621
0.50719
0.403922
0.301961
0.346405
0.39085
0.346405
0.275817
0.454902
0.240523
0.29281
0.239216
0.223529
0.351634
0.34902
0.397386
0.377778
0.426144
0.236601
0.375163
0.328105
0.256209
0.355556
0.346405
0.501961
0.332026
0.350327
0.350327
0.342484
0.383007
0.481046
0.35817
0.39085
0.281046
0.308497
0.335948
0.431373
0.418301
0.36732
0.562092
0.296732
0.43268
0.315033
0.290196
0.499346
0.368627
0.389542
0.337255
0.457516
0.440523
0.324183
0.454902
0.413072
0.556863
0.281046
0.498039
0.452288
0.265359
0.383007
0.431373
0.360784
0.279739
0.481046
0.386928
0.248366
0.360784
0.462745
0.273203
0.279739
0.257516
0.440523
0.282353
0.24183
0.258824
0.298039
0.282353
0.350327
0.269281
0.260131
0.266667
0.270588
0.271895
0.406536
0.253595
0.271895
0.28366
0.295425
0.296732
0.308497
0.295425
0.29281
0.345098
0.30719
0.296732
0.373856
0.437908
0.397386
0.363399
0.299346
0.296732
0.359477
0.383007
0.39085
0.266667
0.294118
0.311111
0.479739
0.333333
0.304575
0.296732
0.445752
0.228758
0.543791
0.403922
0.300654
0.513725
0.321569
0.491503
0.521569
0.30719
0.410458
0.271895
0.223529
0.215686
0.226144
0.254902
0.381699
0.389542
0.210458
0.277124
0.257516
0.541176
0.49281
0.43268
0.335948
0.230065
0.555556
0.500654
0.338562
0.243137
0.260131
0.366013
0.487582
0.386928
0.313725
0.383007
0.312418
0.275817
0.491503
0.318954
0.742484
0.326797
0.300654
0.311111
0.458824
0.729412
0.346405
0.484967
0.288889
0.526797
0.781699
0.499346
0.747712
0.269281
0.30719
0.486275
0.479739
0.290196
0.581699
0.376471
0.397386
0.405229
0.428758
0.322876
0.233987
0.397386
0.488889
0.392157
0.384314
0.320261
0.332026
0.298039
0.324183
0.324183
0.24183
0.334641
0.477124
0.623529
0.428758
0.270588
0.469281
0.754248
0.299346
0.368627
0.74902
0.247059
0.275817
0.392157
0.341176
0.226144
0.456209
0.436601
0.220915
0.669281
0.278431
0.449673
0.528105
0.466667
0.300654
0.350327
0.713725
0.380392
0.320261
0.321569
0.392157
0.372549
0.355556
0.30719
0.321569
0.287582
0.372549
0.262745
0.376471
0.288889
0.266667
0.564706
0.299346
0.286275
0.341176
0.260131
0.379085
0.333333
0.351634
0.28366
0.299346
0.393464
0.330719
0.35817
0.44183
0.271895
0.360784
0.270588
0.284967
0.258824
0.273203
0.275817
0.282353
0.322876
0.29281
0.313725
0.464052
0.430065
0.312418
0.335948
0.312418
0.481046
0.45098
0.586928
0.337255
0.411765
0.380392
0.448366
0.397386
0.291503
0.343791
0.403922
0.458824
0.473203
0.44183
0.428758
0.329412
0.360784
0.423529
0.267974
0.275817
0.419608
0.28366
0.288889
0.295425
0.422222
0.481046
0.462745
0.52549
0.687582
0.72549
0.488889
0.500654
0.44183
0.321569
0.326797
0.416993
0.270588
0.620915
0.769935
0.342484
0.301961
0.265359
0.219608
0.628758
0.230065
0.445752
0.318954
0.669281
0.352941
0.375163
0.329412
0.271895
0.355556
0.29281
0.375163
0.598693
0.294118
0.29281
0.552941
0.498039
0.309804
0.291503
0.275817
0.562092
0.504575
0.423529
0.286275
0.410458
0.403922
0.430065
0.384314
0.401307
0.611765
0.460131
0.189542
0.351634
0.313725
0.321569
0.414379
0.282353
0.351634
0.427451
0.405229
0.362092
0.315033
0.44183
0.342484
0.309804
0.335948
0.383007
0.355556
0.543791
0.522876
0.560784
0.545098
0.55817
0.384314
0.494118
0.278431
0.4
0.244444
0.359477
0.376471
0.326797
0.43268
0.301961
0.253595
0.496732
0.555556
0.547712
0.343791
0.341176
0.364706
0.318954
0.337255
0.236601
0.407843
0.406536
0.286275
0.164706
0.341176
0.320261
0.332026
0.473203
0.467974
0.303268
0.573856
0.424837
0.619608
0.563399
0.576471
0.673203
0.309804
0.475817
0.321569
0.413072
0.270588
0.368627
0.379085
0.279739
0.383007
0.27451
0.267974
0.264052
0.54902
0.535948
0.288889
0.309804
0.220915
0.350327
0.239216
0.343791
0.569935
0.703268
0.524183
0.520261
0.550327
0.564706
0.315033
0.296732
0.352941
0.247059
0.321569