# vtk DataFile Version 1.0
Unstructured Grid Example
ASCII

DATASET UNSTRUCTURED_GRID
POINTS 12256 float
138 95 0
67 1 0
261 161 0
312 272 0
342 376 0
453 240 0
391 323 0
370 345 0
362 144 0
468 66 0
450 37 0
108 61 0
75 42 0
270 61 0
274 105 0
316 145 0
308 109 0
279 123 0
8 126 0
209 117 0
271 182 0
280 323 0
259 366 0
264 485 0
306 424 0
294 412 0
301 374 0
314 309 0
307 235 0
317 301 0
327 299 0
326 315 0
332 390 0
333 406 0
474 313 0
339 309 0
401 302 0
408 294 0
402 280 0
489 99 0
359 185 0
332 138 0
407 15 0
384 90 0
421 36 0
452 27 0
471 40 0
27 29 0
64 38 0
44 57 0
26 73 0
100 46 0
124 47 0
69 43 0
90 36 0
81 31 0
180 38 0
158 49 0
181 10 0
304 1 0
199 62 0
296 62 0
164 70 0
164 56 0
140 56 0
208 87 0
223 80 0
251 108 0
269 112 0
309 156 0
318 115 0
298 147 0
249 132 0
242 119 0
187 90 0
204 124 0
189 87 0
153 75 0
97 105 0
93 82 0
150 110 0
0 113 0
29 120 0
168 168 0
58 189 0
225 333 0
269 317 0
258 369 0
255 341 0
254 418 0
245 412 0
204 376 0
0 466 0
173 455 0
20 495 0
15 498 0
259 476 0
262 513 0
260 459 0
228 431 0
255 423 0
280 384 0
272 367 0
283 401 0
286 425 0
318 431 0
314 444 0
318 405 0
306 365 0
287 354 0
312 347 0
300 256 0
287 280 0
274 329 0
276 217 0
278 251 0
304 165 0
313 174 0
318 233 0
329 271 0
341 258 0
348 247 0
350 263 0
354 282 0
354 285 0
354 291 0
350 296 0
333 277 0
337 317 0
344 331 0
328 380 0
328 453 0
344 368 0
346 513 0
352 361 0
353 354 0
346 315 0
366 296 0
357 287 0
392 333 0
360 403 0
449 508 0
497 509 0
411 304 0
466 296 0
416 287 0
449 276 0
512 277 0
362 262 0
362 287 0
400 238 0
367 252 0
429 261 0
472 226 0
473 230 0
506 123 0
468 223 0
508 104 0
428 88 0
368 71 0
422 74 0
377 199 0
369 209 0
374 205 0
365 208 0
362 183 0
355 223 0
351 191 0
329 133 0
324 86 0
341 88 0
357 121 0
358 115 0
410 61 0
417 40 0
370 33 0
345 31 0
389 14 0
350 11 0
405 10 0
411 28 0
413 1 0
443 11 0
437 27 0
460 49 0
464 54 0
496 36 0
505 46 0
501 9 0
497 5 0
494 4 0
12 1 0
48 1 0
70 1 0
87 10 0
76 15 0
82 12 0
76 18 0
75 24 0
0 26 0
13 25 0
54 39 0
5 53 0
78 52 0
75 49 0
72 43 0
56 42 0
69 29 0
99 53 0
102 51 0
117 54 0
128 55 0
135 45 0
133 42 0
134 37 0
138 27 0
136 35 0
129 21 0
128 24 0
126 21 0
103 21 0
93 16 0
99 1 0
101 2 0
105 5 0
112 1 0
148 17 0
138 2 0
139 21 0
154 26 0
157 19 0
157 13 0
178 6 0
160 1 0
203 4 0
251 6 0
225 1 0
260 1 0
289 2 0
264 26 0
289 12 0
239 25 0
233 10 0
227 6 0
221 32 0
193 37 0
290 33 0
299 37 0
288 45 0
255 39 0
216 51 0
204 52 0
195 49 0
172 45 0
190 36 0
192 29 0
183 27 0
149 39 0
156 32 0
140 40 0
145 43 0
165 45 0
207 69 0
215 78 0
207 85 0
191 88 0
218 85 0
221 78 0
230 75 0
223 58 0
218 64 0
250 70 0
262 68 0
286 57 0
309 60 0
311 74 0
294 83 0
277 75 0
249 78 0
262 81 0
261 106 0
242 112 0
263 100 0
293 103 0
269 116 0
280 118 0
267 123 0
245 124 0
235 123 0
218 128 0
226 123 0
234 104 0
225 95 0
215 97 0
191 94 0
206 102 0
187 117 0
213 122 0
150 129 0
154 105 0
142 114 0
140 118 0
142 103 0
148 100 0
151 95 0
182 92 0
172 96 0
182 77 0
175 62 0
187 58 0
175 56 0
165 80 0
155 68 0
164 88 0
142 90 0
170 91 0
109 68 0
117 73 0
116 67 0
115 62 0
81 56 0
4 64 0
46 68 0
7 68 0
30 72 0
0 80 0
101 74 0
112 73 0
118 76 0
97 83 0
139 92 0
52 123 0
21 87 0
0 99 0
15 141 0
153 139 0
186 170 0
174 300 0
246 200 0
243 308 0
217 157 0
224 140 0
230 130 0
255 136 0
251 235 0
255 165 0
261 200 0
266 301 0
266 308 0
256 306 0
255 272 0
249 295 0
259 312 0
253 310 0
262 309 0
263 316 0
263 326 0
264 319 0
260 345 0
259 343 0
251 321 0
241 349 0
232 348 0
243 331 0
248 329 0
211 317 0
162 314 0
101 332 0
231 345 0
17 346 0
222 350 0
224 360 0
230 358 0
234 373 0
224 397 0
224 410 0
222 403 0
219 400 0
0 376 0
172 436 0
137 465 0
42 493 0
13 506 0
186 482 0
186 513 0
206 480 0
198 470 0
228 443 0
243 402 0
252 419 0
241 484 0
241 493 0
267 422 0
256 426 0
259 416 0
255 402 0
259 398 0
246 383 0
244 382 0
239 389 0
236 385 0
254 369 0
235 357 0
260 378 0
262 359 0
264 350 0
273 359 0
270 341 0
275 353 0
276 338 0
287 405 0
288 396 0
281 395 0
272 404 0
269 365 0
272 409 0
277 411 0
275 428 0
275 436 0
281 437 0
281 480 0
283 430 0
278 429 0
285 421 0
296 396 0
290 390 0
300 413 0
293 426 0
300 444 0
300 441 0
307 392 0
304 391 0
300 389 0
306 354 0
298 377 0
297 384 0
292 376 0
292 341 0
289 344 0
295 338 0
302 347 0
309 339 0
307 328 0
307 297 0
302 280 0
303 255 0
295 282 0
282 260 0
285 288 0
289 313 0
301 317 0
275 308 0
277 322 0
272 312 0
270 335 0
271 295 0
269 272 0
272 278 0
278 282 0
278 301 0
278 181 0
284 207 0
271 236 0
268 173 0
285 136 0
267 154 0
285 167 0
288 143 0
290 168 0
294 229 0
299 197 0
298 244 0
298 247 0
303 237 0
312 253 0
311 179 0
303 159 0
301 151 0
316 257 0
315 254 0
316 275 0
313 278 0
334 246 0
341 278 0
321 235 0
325 233 0
336 231 0
353 239 0
343 268 0
354 230 0
361 252 0
360 294 0
356 294 0
353 300 0
346 303 0
344 283 0
352 313 0
350 312 0
355 306 0
362 312 0
365 330 0
359 330 0
352 318 0
343 317 0
342 336 0
339 329 0
329 335 0
331 322 0
333 311 0
313 307 0
316 308 0
320 320 0
314 330 0
327 320 0
314 341 0
316 340 0
317 342 0
332 336 0
330 358 0
324 346 0
323 375 0
320 358 0
318 348 0
315 439 0
323 425 0
317 447 0
316 485 0
334 467 0
326 433 0
329 427 0
325 392 0
336 377 0
337 368 0
337 392 0
336 399 0
337 441 0
359 479 0
353 513 0
344 431 0
344 397 0
361 385 0
340 358 0
341 365 0
339 356 0
336 362 0
341 346 0
343 355 0
345 347 0
353 342 0
355 349 0
370 299 0
368 303 0
381 301 0
382 310 0
380 322 0
384 323 0
375 324 0
372 323 0
368 318 0
366 355 0
370 341 0
368 356 0
367 375 0
378 422 0
384 416 0
385 360 0
373 325 0
374 344 0
392 345 0
411 328 0
414 347 0
416 387 0
501 503 0
461 503 0
441 487 0
503 364 0
478 342 0
407 324 0
407 311 0
399 321 0
398 317 0
416 306 0
411 308 0
424 309 0
429 301 0
430 309 0
497 294 0
466 290 0
486 284 0
508 280 0
444 267 0
458 264 0
444 275 0
427 286 0
445 293 0
408 297 0
406 293 0
402 292 0
391 298 0
402 264 0
374 289 0
407 270 0
417 284 0
419 281 0
405 244 0
393 246 0
391 253 0
376 256 0
397 241 0
389 228 0
402 241 0
415 228 0
432 230 0
454 235 0
455 248 0
435 253 0
443 259 0
501 261 0
508 261 0
503 250 0
488 248 0
463 232 0
503 225 0
495 210 0
443 217 0
434 221 0
443 130 0
450 179 0
485 201 0
493 207 0
512 203 0
502 110 0
512 79 0
509 77 0
507 69 0
466 72 0
472 65 0
432 79 0
469 86 0
484 123 0
399 186 0
387 103 0
386 74 0
407 70 0
380 70 0
385 63 0
373 97 0
368 184 0
385 189 0
377 206 0
371 191 0
395 211 0
399 197 0
413 217 0
408 223 0
404 224 0
379 216 0
397 215 0
356 215 0
346 213 0
357 207 0
349 181 0
345 148 0
340 121 0
339 181 0
343 212 0
331 221 0
323 176 0
322 172 0
321 198 0
320 209 0
315 158 0
318 139 0
324 145 0
324 166 0
325 137 0
334 112 0
335 121 0
325 117 0
323 108 0
329 97 0
318 85 0
331 66 0
334 67 0
338 89 0
342 86 0
339 94 0
341 96 0
338 107 0
351 84 0
344 120 0
349 82 0
363 77 0
350 63 0
424 57 0
417 57 0
377 33 0
427 31 0
355 37 0
351 34 0
371 44 0
369 46 0
356 61 0
325 57 0
335 61 0
320 61 0
314 57 0
327 37 0
318 34 0
329 55 0
330 30 0
335 43 0
347 24 0
349 14 0
339 20 0
328 13 0
315 13 0
320 11 0
334 10 0
362 6 0
370 5 0
402 7 0
394 9 0
376 19 0
400 25 0
433 21 0
404 20 0
423 17 0
431 7 0
410 4 0
445 7 0
441 14 0
455 9 0
468 6 0
449 31 0
466 18 0
442 17 0
440 19 0
435 37 0
435 40 0
447 42 0
441 42 0
436 53 0
469 59 0
462 58 0
461 43 0
457 37 0
456 39 0
480 40 0
483 41 0
471 44 0
485 55 0
495 42 0
490 49 0
500 37 0
509 35 0
505 30 0
498 24 0
499 21 0
481 26 0
476 27 0
471 16 0
473 15 0
488 3 0
512 9 0
495 20 0
16 1 0
29 5 0
15 8 0
27 9 0
38 6 0
52 1 0
30 1 0
34 1 0
84 5 0
81 1 0
92 2 0
93 4 0
91 5 0
94 6 0
89 6 0
85 8 0
80 8 0
85 12 0
85 16 0
89 11 0
96 17 0
90 21 0
96 22 0
89 31 0
86 19 0
82 26 0
21 23 0
32 19 0
25 16 0
65 10 0
11 14 0
5 14 0
4 17 0
9 17 0
16 28 0
28 34 0
5 34 0
40 34 0
48 34 0
52 35 0
52 41 0
51 45 0
47 39 0
9 42 0
11 55 0
12 46 0
25 55 0
18 56 0
44 50 0
49 55 0
30 49 0
42 48 0
48 45 0
66 43 0
59 42 0
59 45 0
67 46 0
81 49 0
93 53 0
86 46 0
77 44 0
87 42 0
90 41 0
71 40 0
68 39 0
56 36 0
59 32 0
59 36 0
62 32 0
93 34 0
76 36 0
105 28 0
123 28 0
124 32 0
124 26 0
116 35 0
121 39 0
112 33 0
108 39 0
105 34 0
97 44 0
97 47 0
108 50 0
97 55 0
114 54 0
112 56 0
111 52 0
116 52 0
122 48 0
132 51 0
127 48 0
134 53 0
131 55 0
136 57 0
148 55 0
141 53 0
148 48 0
147 50 0
151 40 0
150 42 0
129 33 0
127 41 0
128 27 0
126 29 0
133 31 0
134 28 0
146 29 0
149 21 0
135 24 0
146 16 0
138 14 0
121 15 0
130 17 0
117 18 0
131 19 0
132 23 0
102 23 0
106 25 0
101 19 0
101 16 0
99 14 0
97 15 0
107 14 0
111 14 0
114 13 0
123 10 0
106 11 0
105 9 0
96 11 0
109 7 0
109 2 0
111 3 0
114 2 0
118 6 0
126 2 0
129 1 0
126 8 0
124 12 0
132 12 0
137 11 0
143 11 0
130 5 0
134 9 0
165 4 0
154 4 0
166 2 0
172 6 0
163 13 0
161 11 0
158 7 0
152 7 0
154 13 0
158 16 0
163 22 0
167 22 0
151 24 0
171 17 0
172 22 0
173 15 0
171 14 0
169 13 0
179 16 0
181 17 0
188 21 0
178 24 0
189 25 0
194 25 0
194 22 0
192 21 0
197 15 0
186 9 0
187 14 0
186 5 0
177 10 0
179 1 0
183 1 0
185 2 0
192 4 0
197 1 0
206 1 0
200 4 0
206 4 0
205 10 0
272 7 0
217 5 0
268 5 0
268 1 0
211 5 0
291 5 0
302 5 0
304 6 0
309 1 0
307 11 0
305 9 0
303 8 0
301 7 0
296 8 0
278 15 0
271 11 0
291 16 0
296 14 0
303 22 0
297 21 0
293 20 0
271 16 0
281 25 0
219 22 0
258 19 0
231 15 0
264 12 0
202 16 0
211 15 0
214 17 0
210 19 0
205 24 0
198 34 0
211 29 0
210 37 0
206 38 0
223 38 0
246 39 0
217 37 0
220 36 0
234 29 0
268 31 0
301 31 0
305 29 0
309 31 0
305 33 0
308 34 0
301 34 0
296 34 0
294 32 0
258 47 0
234 42 0
290 50 0
302 47 0
304 52 0
310 50 0
300 53 0
281 56 0
238 52 0
223 54 0
229 54 0
220 50 0
223 46 0
207 45 0
208 41 0
200 49 0
207 50 0
216 55 0
190 55 0
184 56 0
181 53 0
175 50 0
187 42 0
176 44 0
187 39 0
190 40 0
192 48 0
194 28 0
193 32 0
188 27 0
186 26 0
181 28 0
175 26 0
179 32 0
181 33 0
176 34 0
162 36 0
168 37 0
173 35 0
171 31 0
152 29 0
160 27 0
159 32 0
154 37 0
158 38 0
153 39 0
165 40 0
174 43 0
174 38 0
168 44 0
172 51 0
165 53 0
162 48 0
154 55 0
185 61 0
183 62 0
188 67 0
190 68 0
200 69 0
193 74 0
192 72 0
191 75 0
194 76 0
191 78 0
186 83 0
193 99 0
194 89 0
196 100 0
201 88 0
195 87 0
199 79 0
210 86 0
[...]
CELL_DATA 24200
COLOR_SCALARS ColorSpace 1
0.482353
0.364706
0.554248
0.571242
0.328105
0.334641
0.226144
0.130719
0.265359
0.615686
0.521569
0.647059
0.423529
0.267974
0.151634
0.552941
0.554248
0.298039
0.286275
0.341176
0.341176
0.28366
0.282353
0.326797
0.19085
0.560784
0.189542
0.504575
0.223529
0.175163
0.356863
0.345098
0.532026
0.267974
0.379085
0.305882
0.256209
0.36732
0.522876
0.352941
0.360784
0.552941
0.254902
0.54902
0.313725
0.257516
0.339869
0.488889
0.269281
0.324183
0.419608
0.388235
0.55817
0.269281
0.301961
0.677124
0.477124
0.278431
0.275817
0.273203
0.288889
0.350327
0.475817
0.281046
0.352941
0.503268
0.713725
0.366013
0.304575
0.32549
0.377778
0.460131
0.312418
0.257516
0.252288
0.36732
0.529412
0.355556
0.172549
0.556863
0.313725
0.461438
0.169935
0.312418
0.322876
0.338562
0.379085
0.322876
0.334641
0.243137
0.28366
0.369935
0.303268
0.282353
0.384314
0.461438
0.315033
0.207843
0.29281
0.321569
0.305882
0.383007
0.317647
0.341176
0.301961
0.45098
0.345098
0.356863
0.396078
0.403922
0.194771
0.291503
0.411765
0.177778
0.32549
0.579085
0.371242
0.345098
0.326797
0.552941
0.464052
0.337255
0.168627
0.183007
0.186928
0.312418
0.214379
0.363399
0.298039
0.556863
0.201307
0.330719
0.240523
0.207843
0.166013
0.328105
0.308497
0.286275
0.333333
0.303268
0.494118
0.237908
0.223529
0.262745
0.415686
0.52549
0.211765
0.555556
0.239216
0.332026
0.203922
0.448366
0.559477
0.54902
0.231373
0.334641
0.559477
0.541176
0.373856
0.466667
0.530719
0.355556
0.551634
0.366013
0.541176
0.414379
0.537255
0.253595
0.282353
0.427451
0.508497
0.496732
0.545098
0.49281
0.501961
0.479739
0.495425
0.48366
0.467974
0.469281
0.48366
0.462745
0.484967
0.253595
0.465359
0.288889
0.8
0.619608
0.490196
0.329412
0.341176
0.368627
0.366013
0.304575
0.288889
0.487582
0.266667
0.309804
0.284967
0.50719
0.211765
0.487582
0.303268
0.732026
0.699346
0.322876
0.4
0.312418
0.258824
0.315033
0.290196
0.428758
0.551634
0.44183
0.508497
0.386928
0.315033
0.188235
0.551634
0.352941
0.414379
0.410458
0.303268
0.551634
0.312418
0.43268
0.532026
0.239216
0.449673
0.518954
0.449673
0.551634
0.550327
0.447059
0.350327
0.452288
0.416993
0.460131
0.465359
0.426144
0.571242
0.431373
0.415686
0.415686
0.287582
0.499346
0.465359
0.579085
0.511111
0.228758
0.416993
0.486275
0.311111
0.60915
0.503268
0.47451
0.269281
0.397386
0.457516
0.303268
0.328105
0.469281
0.547712
0.25098
0.467974
0.445752
0.332026
0.494118
0.267974
0.427451
0.48366
0.500654
0.529412
0.491503
0.300654
0.534641
0.529412
0.522876
0.541176
0.244444
0.522876
0.481046
0.420915
0.437908
0.338562
0.488889
0.453595
0.509804
0.266667
0.552941
0.444444
0.416993
0.532026
0.36732
0.606536
0.426144
0.329412
0.537255
0.247059
0.551634
0.34902
0.428758
0.416993
0.513725
0.270588
0.173856
0.318954
0.533333
0.556863
0.407843
0.346405
0.20915
0.436601
0.392157
0.172549
0.555556
0.562092
0.563399
0.359477
0.397386
0.508497
0.2
0.181699
0.179085
0.20915
0.334641
0.27451
0.198693
0.196078
0.563399
0.207843
0.49281
0.299346
0.410458
0.32549
0.364706
0.286275
0.338562
0.322876
0.266667
0.267974
0.321569
0.218301
0.296732
0.311111
0.311111
0.422222
0.34902
0.265359
0.322876
0.279739
0.371242
0.356863
0.287582
0.291503
0.253595
0.30719
0.402614
0.315033
0.27451
0.244444
0.294118
0.337255
0.267974
0.248366
0.25098
0.245752
0.364706
0.380392
0.338562
0.287582
0.305882
0.291503
0.290196
0.27451
0.298039
0.277124
0.312418
0.236601
0.281046
0.261438
0.303268
0.254902
0.294118
0.28366
0.343791
0.393464
0.326797
0.342484
0.352941
0.311111
0.305882
0.335948
0.295425
0.27451
0.39085
0.355556
0.330719
0.334641
0.380392
0.447059
0.219608
0.362092
0.568627
0.270588
0.528105
0.508497
0.360784
0.360784
0.443137
0.375163
0.413072
0.495425
0.405229
0.223529
0.495425
0.347712
0.328105
0.392157
0.227451
0.256209
0.189542
0.305882
0.393464
0.371242
0.366013
0.351634
0.360784
0.202614
0.328105
0.282353
0.394771
0.14902
0.452288
0.4
0.254902
0.435294
0.224837
0.380392
0.36732
0.342484
0.216993
0.184314
0.339869
0.210458
0.193464
0.193464
0.239216
0.172549
0.186928
0.173856
0.338562
0.155556
0.162092
0.169935
0.384314
0.15817
0.143791
0.16732
0.19085
0.163399
0.295425
0.287582
0.205229
0.328105
0.156863
0.284967
0.279739
0.296732
0.175163
0.231373
0.192157
0.172549
0.373856
0.189542
0.311111
0.177778
0.346405
0.278431
0.324183
0.407843
0.222222
0.168627
0.305882
0.264052
0.34902
0.402614
0.40915
0.402614
0.473203
0.360784
0.532026
0.475817
0.542484
0.543791
0.352941
0.312418
0.262745
0.245752
0.14902
0.249673
0.258824
0.24183
0.239216
0.433987
0.359477
0.265359
0.29281
0.192157
0.194771
0.309804
0.150327
0.249673
0.183007
0.207843
0.198693
0.249673
0.171242
0.278431
0.15817
0.15817
0.271895
0.235294
0.166013
0.24183
0.154248
0.192157
0.173856
0.14902
0.179085
0.261438
0.185621
0.142484
0.389542
0.304575
0.304575
0.308497
0.155556
0.332026
0.296732
0.179085
0.418301
0.237908
0.235294
0.194771
0.301961
0.299346
0.39085
0.318954
0.379085
0.345098
0.282353
0.461438
0.354248
0.277124
0.354248
0.239216
0.338562
0.213072
0.329412
0.354248
0.452288
0.322876
0.32549
0.566013
0.564706
0.559477
0.371242
0.330719
0.312418
0.396078
0.444444
0.308497
0.560784
0.556863
0.555556
0.559477
0.508497
0.55817
0.427451
0.384314
0.518954
0.321569
0.32549
0.34902
0.245752
0.369935
0.338562
0.218301
0.351634
0.298039
0.290196
0.376471
0.29281
0.369935
0.411765
0.329412
0.313725
0.478431
0.318954
0.471895
0.461438
0.437908
0.36732
0.339869
0.267974
0.308497
0.252288
0.324183
0.333333
0.362092
0.236601
0.266667
0.362092
0.356863
0.308497
0.305882
0.448366
0.393464
0.487582
0.31634
0.371242
0.424837
0.333333
0.332026
0.359477
0.559477
0.491503
0.513725
0.547712
0.372549
0.443137
0.555556
0.535948
0.371242
0.504575
0.542484
0.547712
0.545098
0.551634
0.533333
0.552941
0.555556
0.51634
0.48366
0.552941
0.542484
0.458824
0.298039
0.555556
0.354248
0.562092
0.315033
0.397386
0.244444
0.240523
0.55817
0.530719
0.550327
0.556863
0.562092
0.482353
0.546405
0.313725
0.273203
0.411765
0.372549
0.533333
0.518954
0.508497
0.545098
0.437908
0.504575
0.573856
0.311111
0.541176
0.508497
0.484967
0.526797
0.427451
0.271895
0.377778
0.467974
0.235294
0.360784
0.322876
0.366013
0.313725
0.30719
0.266667
0.410458
0.321569
0.511111
0.433987
0.473203
0.282353
0.411765
0.384314
0.333333
0.522876
0.424837
0.520261
0.500654
0.517647
0.513725
0.541176
0.287582
0.51634
0.537255
0.535948
0.521569
0.371242
0.454902
0.505882
0.300654
0.350327
0.372549
0.501961
0.43268
0.501961
0.403922
0.499346
0.50719
0.498039
0.500654
0.504575
0.508497
0.501961
0.494118
0.477124
0.469281
0.477124
0.458824
0.473203
0.482353
0.495425
0.460131
0.486275
0.501961
0.481046
0.496732
0.487582
0.270588
0.494118
0.533333
0.701961
0.576471
0.490196
0.477124
0.481046
0.482353
0.352941
0.375163
0.488889
0.406536
0.398693
0.39085
0.403922
0.504575
0.491503
0.311111
0.303268
0.433987
0.439216
0.481046
0.233987
0.435294
0.40915
0.534641
0.313725
0.416993
0.431373
0.464052
0.341176
0.288889
0.384314
0.562092
0.32549
0.420915
0.315033
0.312418
0.456209
0.295425
0.281046
0.295425
0.273203
0.284967
0.373856
0.420915
0.317647
0.317647
0.422222
0.315033
0.347712
0.291503
0.300654
0.320261
0.414379
0.338562
0.266667
0.406536
0.535948
0.539869
0.347712
0.491503
0.220915
0.490196
0.48366
0.487582
0.376471
0.375163
0.281046
0.4
0.23268
0.416993
0.227451
0.414379
0.473203
0.394771
0.346405
0.47451
0.351634
0.296732
0.318954
0.342484
0.305882
0.619608
0.700654
0.351634
0.341176
0.321569
0.211765
0.359477
0.589542
0.281046
0.375163
0.31634
0.419608
0.201307
0.452288
0.318954
0.439216
0.294118
0.260131
0.34902
0.269281
0.35817
0.31634
0.449673
0.298039
0.278431
0.269281
0.28366
0.477124
0.275817
0.315033
0.290196
0.494118
0.354248
0.294118
0.295425
0.330719
0.534641
0.532026
0.351634
0.322876
0.499346
0.640523
0.257516
0.368627
0.499346
0.616993
0.346405
0.282353
0.406536
0.414379
0.296732
0.418301
0.481046
0.373856
0.594771
0.397386
0.247059
0.329412
0.445752
0.440523
0.366013
0.554248
0.563399
0.552941
0.393464
0.541176
0.350327
0.55817
0.552941
0.460131
0.290196
0.573856
0.321569
0.522876
0.559477
0.372549
0.577778
0.28366
0.592157
0.550327
0.551634
0.54902
0.569935
0.4
0.253595
0.124183
0.346405
0.461438
0.54902
0.636601
0.394771
0.512418
0.445752
0.29281
0.281046
0.10719
0.444444
0.329412
0.29281
0.449673
0.424837
0.362092
0.30719
0.478431
0.433987
0.301961
0.452288
0.624837
0.440523
0.253595
0.495425
0.648366
0.334641
0.550327
0.436601
0.512418
0.51634
0.411765
0.551634
0.517647
0.206536
0.477124
0.583007
0.305882
0.484967
0.547712
0.415686
0.509804
0.487582
0.52549
0.488889
0.401307
0.355556
0.443137
0.482353
0.339869
0.304575
0.423529
0.545098
0.529412
0.363399
0.352941
0.287582
0.264052
0.284967
0.256209
0.363399
0.265359
0.368627
0.296732
0.346405
0.356863
0.337255
0.381699
0.27451
0.269281
0.287582
0.278431
0.458824
0.407843
0.281046
0.309804
0.362092
0.309804
0.511111
0.296732
0.368627
0.528105
0.435294
0.372549
0.354248
0.269281
0.564706
0.304575
0.345098
0.34902
0.318954
0.343791
0.317647
0.552941
0.321569
0.328105
0.318954
0.288889
0.34902
0.392157
0.34902
0.341176
0.350327
0.270588
0.396078
0.305882
0.335948
0.481046
0.571242
0.488889
0.498039
0.27451
0.39085
0.205229
0.303268
0.261438
0.35817
0.397386
0.338562
0.337255
0.546405
0.27451
0.383007
0.243137
0.296732
0.498039
0.51634
0.48366
0.498039
0.478431
0.499346
0.230065
0.324183
0.253595
0.508497
0.342484
0.332026
0.262745
0.34902
0.490196
0.295425
0.501961
0.34902
0.496732
0.290196
0.36732
0.51634
0.394771
0.366013
0.528105
0.300654
0.337255
0.278431
0.308497
0.413072
0.328105
0.311111
0.286275
0.296732
0.31634
0.245752
0.322876
0.305882
0.309804
0.29281
0.47451
0.270588
0.312418
0.304575
0.296732
0.287582
0.311111
0.424837
0.343791
0.299346
0.304575
0.203922
0.298039
0.515033
0.50719
0.501961
0.254902
0.49281
0.498039
0.539869
0.31634
0.322876
0.303268
0.317647
0.381699
0.32549
0.31634
0.51634
0.532026
0.50719
0.515033
0.48366
0.508497
0.482353
0.477124
0.504575
0.478431
0.484967
0.491503
0.532026
0.52549
0.505882
0.318954
0.524183
0.318954
0.411765
0.298039
0.30719
0.369935
0.31634
0.379085
0.386928
0.287582
0.315033
0.393464
0.305882
0.301961
0.318954
0.44183
0.520261
0.52549
0.530719
0.533333
0.532026
0.52549
0.465359
0.530719
0.521569
0.416993
0.298039
0.428758
0.543791
0.351634
0.339869
0.253595
0.264052
0.52549
0.315033
0.552941
0.305882
0.68366
0.288889
0.296732
0.597386
0.337255
0.320261
0.462745
0.31634
0.394771
0.324183
0.470588
0.312418
0.247059
0.277124
0.59085
0.300654
0.436601
0.605229
0.59085
0.405229
0.39085
0.426144
0.427451
0.317647
0.59085
0.469281
0.343791
0.305882
0.445752
0.415686
0.556863
0.428758
0.503268
0.40915
0.324183
0.254902
0.362092
0.373856
0.466667
0.383007
0.282353
0.342484
0.529412
0.526797
0.534641
0.498039
0.526797
0.52549
0.530719
0.542484
0.318954
0.279739
0.529412
0.435294
0.509804
0.533333
0.551634
0.291503
0.552941
0.256209
0.30719
0.315033
0.554248
0.513725
0.534641
0.28366
0.511111
0.392157
0.410458
0.322876
0.227451
0.288889
0.39085
0.249673
0.335948
0.309804
0.55817
0.28366
0.282353
0.271895
0.312418
0.269281
0.488889
0.499346
0.437908
0.552941
0.554248
0.475817
0.282353
0.35817
0.368627
0.30719
0.282353
0.264052
0.29281
0.265359
0.304575
0.218301
0.484967
0.556863
0.392157
0.552941
0.179085
0.542484
0.28366
0.556863
0.554248
0.247059
0.494118
0.552941
0.428758
0.552941
0.44183
0.43268
0.379085
0.301961
0.28366
0.312418
0.586928
0.550327
0.376471
0.445752
0.177778
0.635294
0.481046
0.226144
0.555556
0.484967
0.456209
0.313725
0.211765
0.252288
0.141176
0.298039
0.216993
0.299346
0.588235
0.538562
0.55817
0.322876
0.245752
0.350327
0.271895
0.308497
0.547712
0.551634
0.54902
0.312418
0.352941
0.34902
0.290196
0.175163
0.252288
0.2
0.406536
0.192157
0.180392
0.23268
0.330719
0.183007
0.183007
0.183007
0.197386
0.188235
0.179085
0.130719
0.220915
0.224837
0.220915
0.227451
0.281046
0.260131
0.288889
0.248366
0.320261
0.256209
0.220915
0.220915
0.181699
0.243137
0.271895
0.164706
0.29281
0.300654
0.173856
0.278431
0.288889
0.301961
0.279739
0.401307
0.350327
0.311111
0.368627
0.305882
0.352941
0.324183
0.305882
0.275817
0.328105
0.369935
0.317647
0.294118
0.218301
0.249673
0.249673
0.288889
0.269281
0.295425
0.329412
0.328105
0.309804
0.193464
0.222222
0.277124
0.279739
0.24183
0.240523
0.324183
0.173856
0.28366
0.375163
0.284967
0.333333
0.247059
0.258824
0.301961
0.224837
0.25098
0.27451
0.350327
0.333333
0.233987
0.328105
0.296732
0.328105
0.371242
0.329412
0.322876
0.179085
0.35817
0.267974
0.197386
0.318954
0.320261
0.290196
0.305882
0.281046
0.384314
0.328105
0.281046
0.393464
0.275817
0.270588
0.322876
0.27451
0.372549
0.142484
0.303268
0.389542
0.355556
0.311111
0.236601
0.222222
0.296732
0.338562
0.31634
0.320261
0.318954
0.188235
0.281046
0.351634
0.19085
0.346405
0.25098
0.245752
0.282353
0.304575
0.278431
0.233987
0.287582
0.206536
0.436601
0.318954
0.273203
0.346405
0.194771
0.286275
0.40915
0.448366
0.28366
0.273203
0.346405
0.271895
0.279739
0.290196
0.320261
0.313725
0.317647
0.19085
0.226144
0.414379
0.25098
0.239216
0.362092
0.269281
0.318954
0.337255
0.287582
0.269281
0.30719
0.211765
0.326797
0.245752
0.240523
0.233987
0.288889
0.233987
0.214379
0.247059
0.286275
0.254902
0.249673
0.202614
0.342484
0.368627
0.218301
0.321569
0.186928
0.236601
0.278431
0.247059
0.248366
0.254902
0.269281
0.25098
0.235294
0.256209
0.222222
0.286275
0.244444
0.243137
0.252288
0.275817
0.248366
0.301961
0.265359
0.257516
0.243137
0.265359
0.301961
0.248366
0.275817
0.233987
0.222222
0.231373
0.300654
0.266667
0.366013
0.228758
0.262745
0.318954
0.235294
0.270588
0.256209
0.328105
0.239216
0.290196
0.237908
0.309804
0.211765
0.286275
0.15817
0.295425
0.312418
0.210458
0.279739
0.397386
0.304575
0.279739
0.295425
0.287582
0.305882
0.271895
0.266667
0.254902
0.277124
0.301961
0.299346
0.258824
0.30719
0.254902
0.236601
0.254902
0.271895
0.254902
0.256209
0.253595
0.247059
0.267974
0.305882
0.269281
0.258824
0.286275
0.312418
0.253595
0.277124
0.288889
0.309804
0.299346
0.311111
0.317647
0.334641
0.295425
0.308497
0.24183
0.322876
0.273203
0.322876
0.247059
0.28366
0.249673
0.233987
0.294118
0.258824
0.303268
0.295425
0.311111
0.320261
0.288889
0.305882
0.300654
0.264052
0.298039
0.309804
0.330719
0.312418
0.321569
0.30719
0.326797
0.318954
0.326797
0.354248
0.360784
0.356863
0.383007
0.355556
0.360784
0.379085
0.318954
0.346405
0.345098
0.330719
0.214379
0.35817
0.30719
0.299346
0.290196
0.305882
0.312418
0.304575
0.270588
0.275817
0.299346
0.288889
0.288889
0.282353
0.281046
0.330719
0.313725
0.303268
0.458824
0.284967
0.329412
0.435294
0.410458
0.32549
0.397386
0.359477
0.294118
0.437908
0.469281
0.407843
0.343791
0.279739
0.290196
0.345098
0.226144
0.261438
0.275817
0.260131
0.379085
0.253595
0.25098
0.278431
0.267974
0.401307
0.405229
0.30719
0.267974
0.40915
0.376471
0.415686
0.393464
0.261438
0.351634
0.317647
0.552941
0.385621
0.389542
0.538562
0.481046
0.433987
0.471895
0.352941
0.533333
0.290196
0.35817
0.381699
0.440523
0.496732
0.332026
0.376471
0.603922
0.376471
0.308497
0.542484
0.433987
0.29281
0.368627
0.443137
0.444444
0.332026
0.467974
0.410458
0.401307
0.393464
0.473203
0.347712
0.495425
0.449673
0.422222
0.496732
0.385621
0.388235
0.482353
0.496732
0.512418
0.368627
0.453595
0.393464
0.32549
0.452288
0.354248
0.364706
0.447059
0.355556
0.261438
0.351634
0.368627
0.339869
0.296732
0.218301
0.333333
0.215686
0.278431
0.202614
0.247059
0.362092
0.277124
0.252288
0.223529
0.226144
0.329412
0.362092
0.356863
0.342484
0.366013
0.369935
0.337255
0.518954
0.366013
0.341176
0.317647
0.27451
0.262745
0.416993
0.338562
0.360784
0.330719
0.364706
0.352941
0.351634
0.347712
0.334641
0.393464
0.290196
0.350327
0.290196
0.352941
0.4
0.369935
0.341176
0.419608
0.386928
0.356863
0.32549
0.458824
0.423529
0.359477
0.308497
0.436601
0.444444
0.173856
0.235294
0.264052
0.345098
0.256209
0.286275
0.420915
0.247059
0.397386
0.15817
0.337255
0.333333
0.240523
0.320261
0.277124
0.309804
0.360784
0.420915
0.366013
0.362092
0.381699
0.397386
0.379085
0.342484
0.43268
0.402614
0.206536
0.347712
0.261438
0.422222
0.337255
0.386928
0.235294
0.284967
0.155556
0.194771
0.273203
0.324183
0.248366
0.385621
0.286275
0.369935
0.377778
0.371242
0.330719
0.282353
0.248366
0.267974
0.126797
0.332026
0.261438
0.335948
0.122876
0.304575
0.173856
0.143791
0.269281
0.132026
0.315033
0.31634
0.184314
0.249673
0.146405
0.105882
0.230065
0.214379
0.179085
0.117647
0.130719
0.132026
0.128105
0.132026
0.115033
0.264052
0.248366
0.14902
0.181699
0.120261
0.12549
0.164706
0.186928
0.176471
0.16732
0.126797
0.175163
0.405229
0.277124
0.380392
0.279739
0.332026
0.277124
0.44183
0.313725
0.244444
0.31634
0.298039
0.19085
0.301961
0.231373
0.462745
0.2
0.185621
0.169935
0.215686
0.152941
0.202614
0.186928
0.257516
0.27451
0.211765
0.245752
0.27451
0.287582
0.173856
0.164706
0.197386
0.160784
0.160784
0.202614
0.132026
0.192157
0.164706
0.20915
0.151634
0.171242
0.166013
0.210458
0.176471
0.150327
0.162092
0.147712
0.134641
0.275817
0.14902
0.166013
0.233987
0.15817
0.301961
0.203922
0.341176
0.188235
0.290196
0.141176
0.210458
0.28366
0.159477
0.159477
0.176471
0.152941
0.14902
0.183007
0.14902
0.171242
0.181699
0.180392
0.145098
0.180392
0.175163
0.235294
0.32549
0.169935
0.413072
0.257516
0.189542
0.278431
0.258824
0.239216
0.183007
0.189542
0.216993
0.176471
0.185621
0.25098
0.168627
0.189542
0.193464
0.286275
0.145098
0.257516
0.308497
0.222222
0.188235
0.237908
0.249673
0.258824
0.171242
0.335948
0.150327
0.175163
0.171242
0.168627
0.180392
0.150327
0.166013
0.303268
0.32549
0.196078
0.166013
0.154248
0.284967
0.326797
0.309804
0.28366
0.245752
0.159477
0.261438
0.351634
0.270588
0.266667
0.181699
0.287582
0.354248
0.309804
0.345098
0.330719
0.406536
0.261438
0.172549
0.216993
0.284967
0.359477
0.24183
0.368627
0.15817
0.160784
0.171242
0.343791
0.29281
0.303268
0.260131
0.177778
0.315033
0.337255
0.354248
0.341176
0.385621
0.334641
0.271895
0.313725
0.368627
0.4
0.397386
0.347712
0.303268
0.300654
0.347712
0.383007
0.308497
0.414379
0.315033
0.321569
0.290196
0.341176
0.440523
0.345098
0.364706
0.414379
0.35817
0.411765
0.386928
0.317647
0.35817
0.372549
0.350327
0.343791
0.383007
0.375163
0.351634
0.341176
0.305882
0.294118
0.360784
0.29281
0.324183
0.397386
0.335948
0.415686
0.294118
0.312418
0.363399
0.312418
0.230065
0.267974
0.337255
0.326797
0.179085
0.278431
0.175163
0.315033
0.160784
0.188235
0.248366
0.277124
0.222222
0.270588
0.210458
0.406536
0.257516
0.452288
0.392157
0.332026
0.320261
0.345098
0.356863
0.287582
0.321569
0.401307
0.315033
0.318954
0.423529
0.373856
0.334641
0.351634
0.206536
0.317647
0.247059
0.454902
0.29281
0.401307
0.4
0.315033
0.35817
0.411765
0.371242
0.437908
0.414379
0.262745
0.350327
0.28366
0.211765
0.235294
0.224837
0.281046
0.2
0.206536
0.245752
0.193464
0.335948
0.240523
0.193464
0.175163
0.261438
0.273203
0.328105
0.275817
0.267974
0.288889
0.230065
0.237908
0.256209
0.329412
0.282353
0.264052
0.163399
0.248366
0.239216
0.269281
0.270588
0.320261
0.19085
0.176471
0.278431
0.295425
0.23268
0.249673
0.188235
0.192157
0.184314
0.160784
0.205229
0.155556
0.163399
0.166013
0.206536
0.23268
0.177778
0.192157
0.181699
0.141176
0.147712
0.226144
0.160784
0.177778
0.160784
0.181699
0.184314
0.160784
0.482353
0.169935
0.198693
0.296732
0.169935
0.176471
0.171242
0.147712
0.163399
0.152941
0.183007
0.169935
0.147712
0.180392
0.189542
0.156863
0.27451
0.168627
0.279739
0.290196
0.270588
0.265359
0.363399
0.25098
0.160784
0.345098
0.236601
0.266667
0.30719
0.243137
0.321569
0.185621
0.252288
0.2
0.254902
0.281046
0.308497
0.317647
0.328105
0.249673
0.286275
0.380392
0.305882
0.386928
0.326797
0.183007
0.473203
0.397386
0.253595
0.27451
0.205229
0.240523
0.267974
0.243137
0.19085
0.27451
0.137255
0.16732
0.277124
0.159477
0.160784
0.146405
0.321569
0.321569
0.15817
0.16732
0.416993
0.359477
0.414379
0.262745
0.364706
0.355556
0.223529
0.312418
0.343791
0.304575
0.424837
0.354248
0.312418
0.147712
0.218301
0.328105
0.418301
0.341176
0.245752
0.322876
0.443137
0.243137
0.369935
0.381699
0.34902
0.431373
0.333333