# vtk DataFile Version 1.0
Unstructured Grid Example
ASCII

DATASET UNSTRUCTURED_GRID
POINTS 2842 float
256 102 0
82 11 0
332 361 0
300 362 0
231 395 0
355 263 0
341 276 0
375 145 0
357 115 0
463 32 0
440 30 0
98 50 0
128 86 0
171 81 0
287 83 0
248 247 0
279 125 0
216 107 0
120 140 0
254 376 0
224 264 0
0 424 0
268 513 0
269 354 0
290 347 0
275 338 0
274 321 0
332 291 0
321 317 0
330 343 0
329 412 0
377 340 0
414 425 0
373 330 0
403 316 0
411 245 0
396 217 0
366 285 0
349 199 0
322 59 0
316 28 0
342 109 0
370 48 0
406 82 0
90 13 0
43 36 0
89 43 0
37 44 0
127 2 0
132 48 0
97 2 0
115 2 0
134 9 0
137 33 0
137 26 0
188 6 0
247 39 0
191 52 0
167 40 0
147 51 0
235 74 0
229 94 0
263 72 0
301 98 0
283 135 0
283 118 0
280 112 0
242 116 0
229 88 0
150 113 0
225 79 0
149 57 0
19 62 0
36 55 0
133 73 0
41 74 0
144 109 0
212 302 0
168 301 0
239 318 0
240 141 0
247 336 0
242 329 0
236 358 0
232 362 0
242 368 0
214 385 0
10 501 0
209 513 0
264 424 0
255 427 0
253 396 0
250 374 0
267 298 0
269 335 0
272 403 0
277 430 0
278 455 0
289 398 0
298 377 0
291 279 0
299 240 0
301 276 0
298 205 0
297 248 0
292 148 0
266 176 0
295 152 0
299 168 0
299 184 0
302 290 0
316 261 0
321 261 0
322 272 0
332 313 0
338 309 0
314 315 0
308 290 0
316 319 0
305 392 0
312 419 0
304 455 0
323 394 0
329 439 0
317 393 0
322 380 0
344 381 0
362 320 0
363 409 0
364 493 0
386 373 0
502 513 0
376 345 0
366 335 0
434 301 0
401 294 0
368 315 0
355 303 0
407 290 0
352 286 0
439 247 0
463 247 0
481 255 0
457 217 0
484 242 0
468 203 0
505 92 0
445 86 0
401 222 0
438 241 0
443 244 0
343 233 0
330 222 0
324 199 0
321 239 0
313 173 0
309 139 0
336 168 0
337 142 0
343 119 0
355 50 0
353 43 0
342 68 0
314 51 0
347 5 0
302 39 0
366 40 0
390 11 0
423 2 0
417 32 0
418 39 0
404 57 0
486 27 0
479 24 0
462 21 0
430 1 0
465 11 0
39 1 0
9 9 0
70 13 0
95 11 0
84 18 0
50 21 0
30 24 0
22 30 0
32 34 0
66 36 0
14 38 0
66 43 0
87 37 0
81 49 0
71 32 0
91 32 0
105 36 0
98 27 0
104 41 0
104 49 0
115 51 0
127 48 0
132 37 0
119 31 0
109 25 0
130 18 0
107 20 0
96 23 0
114 7 0
110 11 0
119 10 0
119 4 0
121 14 0
139 2 0
155 1 0
153 7 0
156 29 0
167 20 0
179 27 0
184 18 0
157 16 0
212 7 0
262 1 0
285 10 0
295 11 0
196 28 0
213 23 0
191 14 0
187 11 0
176 36 0
189 36 0
193 41 0
224 35 0
305 43 0
294 49 0
199 49 0
173 47 0
168 47 0
171 51 0
158 37 0
165 32 0
152 33 0
146 35 0
152 38 0
152 52 0
142 39 0
212 71 0
216 75 0
212 77 0
216 80 0
217 85 0
221 88 0
226 84 0
217 57 0
243 65 0
230 63 0
298 64 0
302 52 0
286 67 0
275 78 0
264 87 0
239 89 0
233 92 0
244 105 0
246 90 0
273 92 0
294 117 0
269 111 0
246 112 0
238 119 0
222 112 0
228 99 0
233 98 0
224 93 0
222 104 0
202 98 0
204 106 0
212 116 0
205 118 0
180 107 0
169 104 0
156 116 0
135 119 0
142 102 0
177 98 0
180 94 0
188 81 0
184 63 0
191 77 0
189 60 0
175 58 0
168 54 0
163 55 0
155 64 0
122 70 0
160 80 0
109 67 0
110 60 0
100 57 0
57 53 0
0 60 0
29 54 0
38 61 0
45 63 0
99 71 0
67 78 0
104 77 0
111 76 0
95 83 0
94 93 0
11 88 0
0 120 0
0 102 0
174 149 0
158 207 0
52 209 0
166 267 0
224 160 0
223 280 0
234 122 0
218 120 0
256 124 0
247 121 0
259 137 0
261 127 0
266 148 0
251 175 0
248 206 0
248 152 0
257 321 0
260 300 0
263 311 0
268 307 0
259 339 0
260 333 0
255 330 0
252 339 0
231 328 0
252 345 0
246 317 0
251 313 0
183 323 0
190 303 0
223 326 0
229 338 0
227 344 0
230 349 0
120 362 0
235 378 0
239 354 0
238 395 0
244 384 0
238 390 0
160 381 0
28 411 0
9 491 0
40 513 0
20 513 0
150 441 0
245 438 0
245 416 0
234 408 0
252 422 0
257 418 0
249 434 0
256 450 0
266 439 0
265 456 0
260 430 0
265 429 0
248 406 0
266 400 0
247 400 0
247 391 0
251 349 0
246 371 0
255 371 0
256 382 0
267 358 0
271 373 0
271 378 0
271 363 0
286 349 0
281 380 0
277 394 0
273 407 0
271 398 0
272 411 0
269 414 0
272 428 0
270 433 0
285 431 0
275 423 0
279 416 0
277 410 0
288 436 0
290 431 0
296 439 0
292 447 0
298 498 0
301 440 0
305 426 0
301 425 0
297 389 0
304 422 0
294 405 0
287 385 0
291 382 0
291 370 0
295 381 0
303 372 0
304 361 0
302 322 0
300 341 0
298 287 0
299 253 0
290 255 0
297 269 0
291 294 0
297 346 0
286 322 0
282 333 0
281 348 0
280 322 0
275 282 0
269 321 0
276 300 0
284 311 0
287 304 0
286 198 0
287 177 0
282 246 0
271 208 0
272 151 0
284 170 0
288 165 0
289 141 0
295 128 0
295 139 0
291 228 0
290 247 0
299 217 0
299 191 0
305 171 0
302 132 0
301 142 0
316 246 0
311 247 0
305 257 0
316 298 0
320 279 0
318 274 0
320 244 0
325 241 0
325 257 0
332 255 0
338 241 0
349 238 0
355 276 0
357 294 0
336 262 0
335 280 0
351 312 0
349 317 0
351 300 0
355 314 0
365 347 0
357 319 0
353 324 0
350 346 0
333 340 0
339 340 0
338 328 0
347 321 0
327 305 0
307 333 0
308 339 0
312 345 0
316 348 0
314 355 0
309 353 0
320 354 0
328 362 0
313 386 0
322 375 0
310 378 0
305 365 0
312 405 0
308 389 0
306 438 0
317 495 0
323 443 0
317 440 0
318 417 0
325 401 0
332 405 0
328 420 0
334 425 0
330 465 0
342 484 0
358 464 0
352 415 0
343 401 0
350 379 0
353 396 0
342 371 0
337 385 0
330 348 0
336 362 0
339 367 0
365 370 0
355 370 0
384 299 0
381 295 0
386 294 0
399 303 0
394 309 0
380 307 0
375 316 0
373 312 0
366 330 0
377 321 0
375 335 0
381 400 0
398 394 0
389 358 0
390 347 0
394 319 0
425 390 0
472 408 0
431 467 0
502 504 0
512 485 0
512 500 0
503 454 0
512 400 0
439 310 0
437 330 0
414 315 0
401 359 0
405 304 0
409 294 0
413 291 0
438 296 0
414 300 0
452 284 0
448 273 0
478 261 0
450 260 0
432 274 0
442 273 0
441 278 0
443 283 0
421 288 0
421 278 0
400 281 0
372 280 0
390 274 0
379 272 0
408 264 0
424 269 0
427 273 0
399 260 0
402 253 0
393 253 0
366 247 0
388 234 0
394 238 0
402 236 0
412 234 0
419 234 0
431 236 0
419 244 0
437 259 0
455 256 0
468 255 0
475 248 0
466 235 0
455 243 0
512 232 0
512 223 0
504 229 0
493 228 0
460 211 0
464 220 0
471 210 0
477 210 0
512 149 0
502 112 0
500 99 0
488 79 0
477 99 0
460 80 0
479 111 0
479 197 0
434 193 0
433 83 0
457 68 0
426 65 0
408 93 0
379 70 0
409 111 0
410 202 0
390 205 0
385 209 0
392 221 0
426 220 0
431 225 0
432 231 0
411 225 0
401 231 0
395 227 0
354 207 0
360 180 0
356 174 0
356 166 0
351 186 0
347 180 0
354 199 0
345 228 0
331 216 0
344 176 0
324 225 0
306 198 0
306 148 0
320 157 0
325 165 0
330 159 0
327 169 0
344 126 0
337 115 0
319 122 0
315 131 0
318 75 0
313 71 0
333 103 0
348 105 0
359 92 0
354 88 0
360 135 0
350 140 0
360 78 0
376 106 0
378 77 0
366 75 0
372 72 0
387 58 0
401 62 0
399 57 0
402 35 0
360 42 0
348 44 0
336 47 0
335 52 0
325 50 0
334 64 0
320 52 0
309 49 0
310 40 0
316 46 0
322 42 0
330 36 0
330 30 0
347 24 0
324 26 0
306 26 0
326 18 0
312 16 0
328 22 0
338 19 0
351 8 0
367 1 0
372 16 0
363 33 0
379 27 0
394 23 0
398 19 0
402 7 0
404 3 0
418 6 0
432 6 0
447 8 0
452 4 0
434 25 0
440 18 0
427 19 0
412 12 0
421 29 0
425 35 0
423 40 0
424 57 0
433 40 0
435 45 0
444 36 0
425 25 0
443 25 0
487 39 0
483 49 0
460 54 0
490 63 0
501 55 0
512 64 0
503 45 0
495 44 0
493 38 0
495 26 0
468 37 0
462 38 0
484 21 0
461 1 0
502 24 0
504 10 0
512 12 0
14 1 0
23 1 0
5 1 0
0 4 0
45 7 0
65 1 0
30 1 0
53 1 0
74 1 0
79 4 0
84 2 0
92 1 0
94 5 0
89 5 0
85 7 0
69 6 0
75 8 0
77 13 0
78 20 0
94 18 0
90 20 0
85 24 0
75 25 0
69 21 0
42 16 0
61 21 0
30 11 0
57 9 0
1 14 0
18 10 0
24 17 0
12 19 0
0 22 0
0 30 0
11 28 0
42 27 0
50 32 0
52 41 0
55 46 0
25 41 0
0 38 0
12 48 0
0 49 0
6 54 0
18 55 0
49 55 0
43 54 0
50 49 0
44 47 0
61 40 0
71 40 0
73 46 0
63 50 0
91 53 0
84 56 0
93 47 0
83 42 0
92 38 0
82 36 0
76 38 0
56 36 0
58 29 0
67 27 0
79 30 0
86 30 0
91 25 0
100 34 0
107 30 0
110 35 0
114 31 0
121 36 0
116 38 0
110 41 0
97 38 0
99 44 0
109 47 0
110 54 0
106 57 0
122 50 0
119 54 0
116 46 0
121 45 0
131 42 0
125 42 0
135 55 0
128 55 0
142 55 0
138 48 0
149 46 0
143 45 0
147 41 0
142 32 0
137 41 0
126 37 0
127 27 0
124 31 0
129 32 0
132 27 0
148 30 0
142 25 0
149 24 0
145 19 0
149 16 0
125 16 0
140 17 0
127 22 0
133 22 0
118 25 0
122 21 0
104 24 0
100 21 0
98 15 0
102 17 0
107 15 0
113 19 0
118 19 0
115 12 0
127 8 0
102 12 0
100 8 0
102 2 0
108 7 0
110 3 0
124 5 0
135 4 0
130 5 0
137 13 0
132 14 0
147 12 0
144 13 0
142 7 0
147 6 0
144 2 0
160 1 0
151 3 0
165 2 0
170 4 0
163 9 0
167 7 0
158 7 0
151 11 0
156 11 0
153 19 0
160 20 0
154 24 0
166 14 0
173 16 0
161 13 0
171 12 0
176 13 0
177 18 0
181 21 0
174 22 0
190 24 0
184 24 0
196 23 0
192 20 0
195 9 0
182 13 0
178 7 0
173 7 0
179 2 0
174 1 0
183 4 0
189 1 0
194 1 0
207 1 0
229 1 0
218 1 0
200 1 0
277 9 0
282 1 0
249 1 0
272 1 0
291 2 0
301 2 0
307 2 0
313 1 0
304 8 0
312 6 0
297 5 0
290 7 0
289 15 0
300 12 0
305 14 0
311 11 0
308 20 0
311 24 0
301 19 0
293 19 0
281 19 0
266 23 0
246 19 0
232 11 0
204 12 0
221 13 0
210 16 0
205 23 0
197 17 0
206 31 0
201 28 0
201 33 0
202 38 0
267 38 0
213 32 0
279 29 0
230 25 0
293 31 0
288 25 0
298 27 0
301 32 0
312 33 0
307 32 0
292 39 0
285 37 0
280 46 0
299 44 0
308 54 0
311 45 0
287 55 0
296 57 0
244 55 0
229 54 0
225 45 0
216 51 0
211 44 0
217 41 0
207 40 0
203 43 0
206 48 0
205 53 0
210 54 0
186 53 0
194 56 0
182 50 0
179 56 0
177 49 0
182 45 0
188 44 0
194 46 0
197 38 0
198 43 0
194 34 0
191 29 0
184 29 0
181 33 0
181 38 0
185 40 0
176 43 0
174 31 0
171 36 0
172 27 0
166 26 0
160 32 0
160 26 0
163 36 0
159 42 0
154 43 0
161 47 0
165 44 0
171 43 0
175 53 0
164 50 0
158 51 0
156 56 0
154 48 0
188 66 0
193 67 0
197 61 0
201 57 0
200 79 0
198 71 0
195 80 0
192 72 0
194 92 0
193 87 0
188 92 0
191 99 0
200 102 0
196 98 0
198 94 0
198 87 0
203 90 0
206 85 0
208 97 0
207 102 0
212 100 0
208 91 0
213 90 0
212 85 0
208 75 0
210 81 0
205 80 0
204 73 0
202 64 0
205 60 0
207 66 0
215 67 0
212 63 0
220 69 0
218 63 0
229 70 0
221 74 0
247 77 0
229 76 0
272 60 0
256 59 0
305 63 0
303 57 0
310 65 0
312 60 0
308 79 0
302 73 0
301 81 0
295 73 0
254 90 0
245 84 0
255 81 0
308 87 0
314 94 0
283 96 0
264 97 0
250 96 0
239 97 0
243 100 0
234 87 0
239 83 0
231 81 0
221 82 0
216 94 0
219 98 0
217 102 0
251 110 0
256 109 0
251 116 0
257 119 0
264 121 0
257 114 0
263 111 0
261 105 0
275 103 0
265 116 0
288 106 0
309 107 0
305 116 0
274 124 0
272 119 0
269 124 0
274 129 0
283 130 0
289 124 0
309 125 0
283 141 0
289 134 0
278 139 0
277 133 0
272 137 0
269 142 0
267 135 0
[...]
CELL_DATA 5564
COLOR_SCALARS ColorSpace 1
0.338562
0.653595
0.406536
0.397386
0.304575
0.360784
0.436601
0.304575
0.40915
0.39085
0.260131
0.296732
0.317647
0.196078
0.504575
0.291503
0.453595
0.171242
0.31634
0.188235
0.539869
0.551634
0.30719
0.299346
0.460131
0.162092
0.230065
0.326797
0.389542
0.414379
0.380392
0.275817
0.56732
0.528105
0.294118
0.31634
0.513725
0.532026
0.284967
0.45098
0.295425
0.473203
0.47451
0.55817
0.342484
0.312418
0.301961
0.401307
0.471895
0.524183
0.383007
0.351634
0.355556
0.282353
0.342484
0.475817
0.385621
0.321569
0.496732
0.313725
0.488889
0.339869
0.479739
0.315033
0.452288
0.326797
0.418301
0.277124
0.550327
0.413072
0.299346
0.313725
0.309804
0.183007
0.426144
0.215686
0.373856
0.295425
0.281046
0.264052
0.14902
0.313725
0.220915
0.298039
0.499346
0.256209
0.381699
0.320261
0.282353
0.286275
0.244444
0.328105
0.248366
0.290196
0.173856
0.383007
0.4
0.270588
0.386928
0.385621
0.27451
0.419608
0.236601
0.471895
0.346405
0.279739
0.318954
0.247059
0.267974
0.24183
0.317647
0.303268
0.228758
0.359477
0.31634
0.413072
0.342484
0.223529
0.16732
0.254902
0.362092
0.16732
0.247059
0.211765
0.176471
0.372549
0.384314
0.231373
0.277124
0.163399
0.166013
0.337255
0.359477
0.341176
0.282353
0.301961
0.415686
0.271895
0.19085
0.346405
0.356863
0.253595
0.24183
0.415686
0.245752
0.386928
0.526797
0.304575
0.550327
0.564706
0.533333
0.482353
0.388235
0.533333
0.55817
0.278431
0.470588
0.440523
0.533333
0.433987
0.350327
0.299346
0.355556
0.328105
0.517647
0.406536
0.524183
0.415686
0.253595
0.51634
0.491503
0.460131
0.481046
0.465359
0.362092
0.410458
0.369935
0.496732
0.584314
0.410458
0.300654
0.309804
0.296732
0.333333
0.360784
0.433987
0.368627
0.54902
0.368627
0.435294
0.505882
0.535948
0.333333
0.351634
0.355556
0.317647
0.320261
0.534641
0.473203
0.277124
0.389542
0.350327
0.458824
0.545098
0.54902
0.542484
0.359477
0.560784
0.40915
0.554248
0.284967
0.420915
0.384314
0.560784
0.253595
0.554248
0.397386
0.384314
0.281046
0.350327
0.437908
0.542484
0.279739
0.585621
0.346405
0.356863
0.320261
0.366013
0.345098
0.295425
0.471895
0.433987
0.301961
0.28366
0.546405
0.396078
0.416993
0.345098
0.371242
0.484967
0.355556
0.456209
0.324183
0.488889
0.301961
0.454902
0.278431
0.341176
0.445752
0.321569
0.318954
0.304575
0.501961
0.261438
0.491503
0.479739
0.50719
0.284967
0.51634
0.318954
0.324183
0.291503
0.294118
0.45098
0.311111
0.456209
0.303268
0.352941
0.335948
0.265359
0.371242
0.317647
0.504575
0.43268
0.410458
0.347712
0.456209
0.375163
0.524183
0.436601
0.384314
0.29281
0.529412
0.501961
0.428758
0.406536
0.29281
0.496732
0.477124
0.359477
0.27451
0.47451
0.351634
0.552941
0.440523
0.375163
0.563399
0.398693
0.309804
0.512418
0.322876
0.401307
0.546405
0.392157
0.28366
0.482353
0.20915
0.254902
0.252288
0.559477
0.179085
0.309804
0.339869
0.235294
0.309804
0.284967
0.324183
0.31634
0.235294
0.271895
0.341176
0.24183
0.405229
0.288889
0.196078
0.312418
0.334641
0.320261
0.345098
0.341176
0.312418
0.326797
0.322876
0.301961
0.313725
0.30719
0.368627
0.298039
0.282353
0.339869
0.301961
0.277124
0.335948
0.301961
0.239216
0.338562
0.278431
0.264052
0.256209
0.303268
0.258824
0.282353
0.423529
0.180392
0.29281
0.258824
0.240523
0.281046
0.252288
0.277124
0.258824
0.278431
0.264052
0.303268
0.270588
0.47451
0.364706
0.313725
0.269281
0.343791
0.338562
0.339869
0.305882
0.338562
0.318954
0.30719
0.386928
0.36732
0.326797
0.282353
0.339869
0.328105
0.405229
0.32549
0.40915
0.262745
0.352941
0.267974
0.458824
0.338562
0.415686
0.335948
0.376471
0.27451
0.345098
0.449673
0.299346
0.385621
0.169935
0.248366
0.356863
0.328105
0.385621
0.303268
0.376471
0.380392
0.373856
0.338562
0.333333
0.351634
0.315033
0.271895
0.267974
0.318954
0.29281
0.414379
0.386928
0.206536
0.211765
0.252288
0.366013
0.300654
0.363399
0.337255
0.4
0.150327
0.299346
0.146405
0.413072
0.258824
0.295425
0.213072
0.160784
0.29281
0.156863
0.224837
0.181699
0.392157
0.214379
0.342484
0.173856
0.362092
0.275817
0.192157
0.258824
0.203922
0.126797
0.264052
0.176471
0.154248
0.252288
0.196078
0.164706
0.380392
0.355556
0.338562
0.324183
0.311111
0.326797
0.330719
0.457516
0.264052
0.366013
0.317647
0.396078
0.313725
0.47451
0.392157
0.380392
0.354248
0.345098
0.311111
0.453595
0.270588
0.249673
0.265359
0.248366
0.345098
0.271895
0.312418
0.431373
0.335948
0.431373
0.345098
0.275817
0.330719
0.341176
0.207843
0.281046
0.213072
0.146405
0.311111
0.183007
0.160784
0.160784
0.224837
0.231373
0.179085
0.164706
0.15817
0.156863
0.173856
0.154248
0.244444
0.244444
0.433987
0.313725
0.352941
0.346405
0.236601
0.219608
0.175163
0.152941
0.233987
0.249673
0.32549
0.402614
0.337255
0.322876
0.320261
0.359477
0.414379
0.465359
0.275817
0.294118
0.338562
0.231373
0.329412
0.362092
0.372549
0.368627
0.228758
0.311111
0.230065
0.299346
0.445752
0.55817
0.239216
0.469281
0.291503
0.275817
0.473203
0.369935
0.362092
0.475817
0.555556
0.562092
0.346405
0.311111
0.28366
0.356863
0.271895
0.320261
0.28366
0.322876
0.287582
0.326797
0.329412
0.227451
0.281046
0.28366
0.350327
0.322876
0.383007
0.278431
0.394771
0.364706
0.313725
0.303268
0.401307
0.359477
0.346405
0.245752
0.381699
0.551634
0.364706
0.330719
0.352941
0.422222
0.333333
0.287582
0.244444
0.30719
0.261438
0.30719
0.303268
0.320261
0.328105
0.334641
0.298039
0.332026
0.435294
0.414379
0.550327
0.23268
0.517647
0.413072
0.326797
0.491503
0.460131
0.318954
0.427451
0.372549
0.494118
0.55817
0.36732
0.542484
0.556863
0.529412
0.518954
0.517647
0.542484
0.559477
0.406536
0.532026
0.529412
0.298039
0.422222
0.309804
0.55817
0.249673
0.290196
0.260131
0.278431
0.253595
0.363399
0.312418
0.287582
0.452288
0.560784
0.555556
0.564706
0.547712
0.552941
0.556863
0.447059
0.339869
0.420915
0.401307
0.533333
0.345098
0.380392
0.4
0.278431
0.386928
0.277124
0.385621
0.368627
0.423529
0.253595
0.346405
0.341176
0.436601
0.513725
0.298039
0.423529
0.532026
0.328105
0.380392
0.430065
0.51634
0.520261
0.520261
0.52549
0.466667
0.520261
0.360784
0.466667
0.309804
0.503268
0.501961
0.40915
0.512418
0.509804
0.452288
0.503268
0.287582
0.321569
0.335948
0.324183
0.305882
0.428758
0.308497
0.377778
0.453595
0.464052
0.482353
0.496732
0.475817
0.500654
0.462745
0.456209
0.484967
0.500654
0.447059
0.487582
0.603922
0.25098
0.403922
0.356863
0.338562
0.397386
0.504575
0.347712
0.309804
0.39085
0.48366
0.413072
0.288889
0.386928
0.490196
0.346405
0.279739
0.346405
0.329412
0.299346
0.456209
0.477124
0.448366
0.475817
0.55817
0.462745
0.435294
0.249673
0.341176
0.439216
0.271895
0.288889
0.407843
0.301961
0.359477
0.366013
0.354248
0.29281
0.431373
0.305882
0.396078
0.389542
0.366013
0.308497
0.299346
0.296732
0.262745
0.343791
0.415686
0.465359
0.443137
0.258824
0.376471
0.407843
0.379085
0.522876
0.303268
0.377778
0.244444
0.271895
0.381699
0.541176
0.205229
0.360784
0.363399
0.231373
0.267974
0.498039
0.219608
0.311111
0.303268
0.258824
0.377778
0.202614
0.39085
0.257516
0.322876
0.479739
0.484967
0.481046
0.522876
0.386928
0.295425
0.244444
0.206536
0.326797
0.384314
0.308497
0.433987
0.226144
0.422222
0.430065
0.256209
0.291503
0.273203
0.324183
0.301961
0.270588
0.372549
0.346405
0.322876
0.407843
0.301961
0.342484
0.305882
0.458824
0.267974
0.299346
0.449673
0.533333
0.550327
0.355556
0.312418
0.31634
0.345098
0.347712
0.454902
0.27451
0.320261
0.332026
0.403922
0.482353
0.384314
0.35817
0.354248
0.300654
0.515033
0.384314
0.494118
0.45098
0.28366
0.458824
0.301961
0.509804
0.39085
0.433987
0.291503
0.530719
0.47451
0.552941
0.343791
0.542484
0.545098
0.249673
0.552941
0.550327
0.356863
0.31634
0.424837
0.282353
0.430065
0.377778
0.439216
0.239216
0.354248
0.312418
0.401307
0.34902
0.300654
0.551634
0.230065
0.277124
0.551634
0.551634
0.452288
0.556863
0.277124
0.407843
0.231373
0.184314
0.223529
0.320261
0.542484
0.461438
0.366013
0.315033
0.389542
0.363399
0.416993
0.346405
0.356863
0.48366
0.355556
0.321569
0.435294
0.487582
0.392157
0.354248
0.427451
0.383007
0.503268
0.401307
0.315033
0.392157
0.466667
0.47451
0.40915
0.406536
0.469281
0.477124
0.363399
0.335948
0.440523
0.318954
0.401307
0.322876
0.34902
0.279739
0.414379
0.320261
0.315033
0.269281
0.311111
0.32549
0.312418
0.264052
0.320261
0.415686
0.359477
0.286275
0.443137
0.301961
0.448366
0.35817
0.39085
0.360784
0.299346
0.456209
0.322876
0.496732
0.304575
0.339869
0.305882
0.275817
0.320261
0.28366
0.363399
0.294118
0.299346
0.284967
0.322876
0.373856
0.40915
0.397386
0.330719
0.305882
0.312418
0.282353
0.343791
0.277124
0.422222
0.253595
0.324183
0.29281
0.321569
0.623529
0.315033
0.269281
0.31634
0.356863
0.396078
0.482353
0.266667
0.351634
0.329412
0.405229
0.407843
0.287582
0.511111
0.298039
0.479739
0.386928
0.300654
0.386928
0.388235
0.500654
0.487582
0.371242
0.484967
0.490196
0.494118
0.496732
0.308497
0.326797
0.338562
0.364706
0.440523
0.366013
0.372549
0.501961
0.43268
0.411765
0.430065
0.396078
0.311111
0.305882
0.363399
0.29281
0.291503
0.490196
0.512418
0.29281
0.373856
0.437908
0.287582
0.318954
0.326797
0.311111
0.470588
0.454902
0.311111
0.457516
0.29281
0.281046
0.533333
0.29281
0.324183
0.296732
0.286275
0.290196
0.322876
0.31634
0.321569
0.27451
0.288889
0.305882
0.501961
0.505882
0.512418
0.500654
0.529412
0.34902
0.524183
0.206536
0.267974
0.345098
0.503268
0.504575
0.496732
0.521569
0.498039
0.482353
0.482353
0.482353
0.479739
0.475817
0.488889
0.405229
0.498039
0.511111
0.50719
0.509804
0.512418
0.430065
0.299346
0.470588
0.512418
0.329412
0.576471
0.279739
0.363399
0.226144
0.478431
0.385621
0.4
0.471895
0.296732
0.32549
0.286275
0.239216
0.460131
0.526797
0.520261
0.172549
0.244444
0.334641
0.277124
0.333333
0.422222
0.305882
0.299346
0.290196
0.403922
0.406536
0.364706
0.27451
0.326797
0.305882
0.356863
0.481046
0.449673
0.418301
0.512418
0.350327
0.517647
0.401307
0.445752
0.343791
0.298039
0.376471
0.305882
0.384314
0.445752
0.460131
0.43268
0.464052
0.377778
0.448366
0.333333
0.377778
0.517647
0.333333
0.377778
0.333333
0.322876
0.420915
0.460131
0.228758
0.520261
0.537255
0.448366
0.499346
0.343791
0.180392
0.356863
0.430065
0.529412
0.469281
0.486275
0.465359
0.406536
0.386928
0.351634
0.290196
0.31634
0.521569
0.28366
0.543791
0.533333
0.529412
0.522876
0.551634
0.552941
0.265359
0.554248
0.394771
0.494118
0.385621
0.505882
0.433987
0.385621
0.35817
0.424837
0.265359
0.28366
0.362092
0.518954
0.305882
0.287582
0.265359
0.526797
0.543791
0.545098
0.529412
0.469281
0.55817
0.484967
0.291503
0.337255
0.296732
0.284967
0.372549
0.273203
0.392157
0.296732
0.304575
0.490196
0.563399
0.552941
0.386928
0.521569
0.447059
0.286275
0.435294
0.320261
0.320261
0.257516
0.338562
0.311111
0.402614
0.362092
0.458824
0.324183
0.282353
0.413072
0.423529
0.363399
0.457516
0.501961
0.356863
0.461438
0.284967
0.179085
0.277124
0.315033
0.354248
0.264052
0.330719
0.171242
0.202614
0.551634
0.211765
0.275817
0.466667
0.403922
0.454902
0.377778
0.324183
0.330719
0.371242
0.453595
0.556863
0.265359
0.235294
0.431373
0.244444
0.315033
0.335948
0.364706
0.369935
0.173856
0.34902
0.312418
0.270588
0.179085
0.166013
0.227451
0.173856
0.196078
0.375163
0.216993
0.279739
0.235294
0.328105
0.224837
0.290196
0.220915
0.192157
0.235294
0.445752
0.303268
0.239216
0.444444
0.164706
0.186928
0.236601
0.288889
0.214379
0.456209
0.330719
0.317647
0.303268
0.335948
0.315033
0.284967
0.287582
0.279739
0.281046
0.298039
0.301961
0.303268
0.291503
0.312418
0.317647
0.30719
0.305882
0.206536
0.294118
0.237908
0.405229
0.269281
0.303268
0.239216
0.213072
0.245752
0.20915
0.252288
0.286275
0.240523
0.219608
0.253595
0.216993
0.248366
0.25098
0.291503
0.32549
0.313725
0.305882
0.329412
0.28366
0.315033
0.32549
0.40915
0.300654
0.218301
0.253595
0.343791
0.304575
0.410458
0.282353
0.315033
0.271895
0.284967
0.31634
0.267974
0.30719
0.265359
0.321569
0.329412
0.265359
0.326797
0.287582
0.298039
0.287582
0.324183
0.29281
0.27451
0.352941
0.359477
0.290196
0.300654
0.303268
0.321569
0.279739
0.304575
0.313725
0.281046
0.245752
0.333333
0.346405
0.233987
0.305882
0.332026
0.284967
0.317647
0.286275
0.311111
0.291503
0.294118
0.396078
0.305882
0.290196
0.322876
0.218301
0.278431
0.273203
0.291503
0.277124
0.244444
0.32549
0.312418
0.366013
0.210458
0.278431
0.28366
0.269281
0.322876
0.346405
0.35817
0.346405
0.240523
0.279739
0.286275
0.290196
0.333333
0.23268
0.245752
0.318954
0.248366
0.24183
0.253595
0.235294
0.230065
0.324183
0.261438
0.375163
0.313725
0.281046
0.284967
0.385621
0.270588
0.332026
0.266667
0.245752
0.243137
0.236601
0.271895
0.252288
0.244444
0.264052
0.277124
0.257516
0.226144
0.281046
0.261438
0.254902
0.260131
0.284967
0.332026
0.27451
0.23268
0.273203
0.256209
0.291503
0.23268
0.264052
0.284967
0.264052
0.299346
0.30719
0.288889
0.311111
0.299346
0.271895
0.235294
0.299346
0.239216
0.312418
0.32549
0.305882
0.282353
0.300654
0.281046
0.266667
0.247059
0.286275
0.275817
0.28366
0.273203
0.27451
0.262745
0.25098
0.262745
0.300654
0.279739
0.29281
0.288889
0.254902
0.243137
0.261438
0.264052
0.247059
0.247059
0.275817
0.273203
0.303268
0.278431
0.295425
0.303268
0.321569
0.321569
0.265359
0.322876
0.249673
0.24183
0.291503
0.273203
0.296732
0.281046
0.266667
0.25098
0.286275
0.326797
0.312418
0.296732
0.313725
0.328105
0.284967
0.304575
0.299346
0.305882
0.322876
0.32549
0.31634
0.324183
0.341176
0.330719
0.347712
0.347712
0.466667
0.360784
0.36732
0.369935
0.364706
0.320261
0.346405
0.201307
0.326797
0.288889
0.332026
0.296732
0.29281
0.313725
0.278431
0.295425
0.275817
0.278431
0.287582
0.300654
0.290196
0.303268
0.275817
0.243137
0.236601
0.237908
0.290196
0.270588
0.223529
0.315033
0.351634
0.312418
0.351634
0.393464
0.386928
0.281046
0.275817
0.360784
0.337255
0.324183
0.317647
0.308497
0.317647
0.371242
0.369935
0.339869
0.354248
0.383007
0.338562
0.298039
0.415686
0.334641
0.47451
0.32549
0.324183
0.270588
0.415686
0.403922
0.537255
0.329412
0.469281
0.426144
0.500654
0.330719
0.545098
0.396078
0.499346
0.500654
0.48366
0.427451
0.508497
0.466667
0.479739
0.315033
0.47451
0.47451
0.423529
0.44183
0.464052
0.363399
0.452288
0.440523
0.44183
0.389542
0.386928
0.393464
0.447059
0.350327
0.445752
0.448366
0.407843
0.420915
0.43268
0.439216
0.423529
0.363399
0.45098
0.328105
0.356863
0.435294
0.308497
0.431373
0.363399
0.424837
0.320261
0.444444
0.396078
0.411765
0.354248
0.346405
0.356863
0.139869
0.334641
0.175163
0.278431
0.211765
0.372549
0.239216
0.317647
0.32549
0.30719
0.354248
0.458824
0.359477
0.36732
0.317647
0.369935
0.29281
0.430065
0.339869
0.265359
0.291503
0.286275
0.363399
0.261438
0.35817
0.354248
0.342484
0.333333
0.32549
0.354248
0.321569
0.311111
0.332026
0.342484
0.273203
0.341176
0.284967
0.288889
0.309804
0.312418
0.372549
0.29281
0.328105
0.290196
0.326797
0.330719
0.284967
0.342484
0.25098
0.258824
0.290196
0.27451
0.284967
0.350327
0.279739
0.28366
0.346405
0.220915
0.189542
0.252288
0.266667
0.262745
0.328105
0.290196
0.315033
0.301961
0.342484
0.384314
0.36732
0.386928
0.388235
0.393464
0.34902
0.273203
0.311111
0.286275
0.351634
0.379085
0.296732
0.278431
0.265359
0.287582
0.311111
0.236601
0.298039
0.299346
0.291503
0.305882
0.219608
0.265359
0.311111
0.339869
0.304575
0.231373
0.256209
0.271895
0.150327
0.317647
0.262745
0.311111
0.235294
0.288889
0.248366
0.235294
0.189542
0.205229
0.266667
0.253595
0.228758
0.100654
0.113725
0.128105
0.179085
0.130719
0.172549
0.202614
0.150327
0.163399
0.141176
0.141176
0.288889
0.368627
0.269281
0.28366
0.264052
0.278431
0.309804
0.326797
0.448366
0.318954
0.281046
0.298039
0.394771
0.351634
0.269281
0.243137
0.254902
0.207843
0.449673
0.248366
0.386928
0.389542
0.254902
0.286275
0.40915
0.375163
0.30719
0.447059
0.388235
0.415686
0.249673
0.362092
0.163399
0.237908
0.133333
0.205229
0.166013
0.177778
0.155556
0.129412
0.150327
0.205229
0.137255
0.154248
0.134641
0.14902
0.337255
0.213072
0.262745
0.24183
0.216993
0.240523
0.23268
0.277124
0.248366
0.223529
0.256209
0.162092
0.164706
0.162092
0.298039
0.23268
0.138562
0.258824
0.177778
0.169935
0.214379
0.177778
0.16732
0.205229
0.222222
0.320261
0.181699
0.279739
0.315033
0.309804
0.294118
0.28366
0.180392
0.177778
0.120261
0.138562
0.164706
0.142484
0.239216
0.192157
0.278431
0.189542
0.25098
0.223529
0.180392
0.162092
0.230065
0.184314
0.152941
0.175163
0.171242
0.211765
0.197386
0.256209
0.20915
0.275817
0.265359
0.308497
0.233987
0.27451
0.286275
0.300654
0.279739
0.29281
0.296732
0.286275
0.308497
0.368627
0.288889
0.24183
0.34902
0.346405
0.253595
0.290196
0.304575
0.364706
0.295425
0.329412
0.282353
0.300654
0.296732
0.193464
0.288889
0.254902
0.25098
0.231373
0.256209
0.216993
0.201307
0.253595
0.219608
0.173856
0.301961
0.281046
0.368627
0.335948
0.282353
0.332026
0.308497
0.312418
0.222222
0.270588
0.312418
0.300654
0.312418
0.287582
0.329412
0.364706
0.32549
0.332026
0.375163
0.405229
0.40915
0.354248
0.383007
0.392157
0.415686
0.34902
0.338562
0.389542
0.313725
0.320261
0.31634
0.419608
0.328105
0.320261
0.35817
0.347712
0.371242
0.294118
0.330719
0.375163
0.321569
0.29281
0.364706
0.321569
0.343791
0.364706
0.34902
0.29281
0.279739
0.271895
0.196078
0.299346
0.210458
0.257516
0.355556
0.287582
0.230065
0.284967
0.416993
0.415686
0.214379
0.223529
0.384314
0.317647
0.467974
0.311111
0.401307
0.260131
0.31634
0.219608
0.277124
0.253595
0.313725
0.379085
0.309804
0.296732
0.354248
0.295425
0.309804
0.31634
0.294118
0.249673
0.303268
0.335948
0.216993
0.341176
0.34902
0.414379
0.394771
0.362092
0.384314
0.335948
0.277124
0.381699
0.25098
0.281046
0.266667
0.286275
0.300654
0.317647
0.196078
0.271895
0.237908
0.266667
0.215686
0.219608
0.288889
0.248366
0.298039
0.240523
0.273203
0.294118
0.256209
0.244444
0.213072
0.261438
0.303268
0.270588
0.309804
0.309804
0.227451
0.135948
0.346405
0.247059
0.166013
0.186928
0.155556
0.160784
0.284967
0.132026
0.230065
0.254902
0.301961
0.243137
0.341176
0.29281
0.183007
0.227451
0.175163
0.201307
0.162092
0.193464
0.180392
0.194771
0.294118
0.24183
0.330719
0.339869
0.180392
0.175163
0.156863
0.290196
0.14902
0.235294
0.231373
0.176471
0.244444
0.159477
0.386928
0.29281
0.347712
0.350327
0.346405
0.260131
0.407843
0.294118
0.322876
0.239216
0.299346
0.262745
0.354248
0.332026
0.355556
0.345098
0.330719
0.359477
0.32549
0.346405
0.219608
0.362092
0.313725
0.16732
0.298039
0.267974
0.277124
0.356863
0.29281
0.311111
0.350327
0.315033
0.326797
0.244444
0.269281
0.233987
0.183007
0.233987
0.294118
0.360784
0.173856
0.177778
0.181699
0.145098
0.202614
0.189542
0.423529
0.341176
0.324183
0.354248
0.288889
0.330719
0.449673
0.258824
0.503268
0.366013
0.453595
0.275817
0.169935
0.239216
0.277124
0.379085
0.296732
0.52549
0.368627
0.469281
0.338562
0.407843
0.362092
0.28366
0.392157
0.324183
0.264052
0.294118
0.334641
0.227451
0.231373
0.300654
0.35817
0.305882
0.294118
0.317647
0.320261
0.270588
0.45098
0.420915
0.360784
0.294118
0.386928
0.290196
0.328105
0.559477
0.262745
0.521569
0.315033
0.298039
0.301961
0.324183
0.269281
0.27451
0.269281
0.279739
0.354248
0.271895
0.303268
0.290196
0.219608
0.211765
0.347712
0.346405
0.419608
0.298039
0.345098
0.266667
0.317647
0.300654
0.415686
0.360784
0.381699
0.373856
0.294118
0.473203
0.411765
0.422222
0.396078
0.265359
0.318954
0.347712
0.542484
0.347712
0.405229
0.487582
0.568627
0.478431
0.562092
0.413072
0.545098
0.560784
0.550327
0.51634
0.345098
0.308497
0.326797
0.388235
0.460131
0.384314
0.329412
0.277124
0.364706
0.271895
0.462745
0.559477
0.562092
0.55817
0.475817
0.295425
0.560784
0.55817
0.39085
0.296732
0.396078
0.322876
0.560784
0.338562
0.324183
0.491503
0.55817
0.559477
0.559477
0.552941
0.534641
0.4
0.55817
0.550327
0.555556
0.533333
0.555556
0.560784
0.359477
0.452288
0.537255
0.366013
0.351634
0.431373
0.35817
0.366013
0.380392
0.356863
0.31634
0.256209
0.301961
0.426144
0.436601
0.435294
0.457516
0.31634
0.490196
0.328105
0.309804
0.40915
0.350327
0.303268
0.279739
0.278431
0.262745
0.326797
0.346405
0.267974
0.380392
0.346405
0.295425
0.315033
0.322876
0.304575
0.341176
0.383007
0.253595
0.318954
0.25098
0.47451
0.32549
0.330719
0.312418
0.380392
0.347712
0.339869
0.330719
0.356863
0.324183
0.264052
0.338562