# vtk DataFile Version 1.0
Unstructured Grid Example
ASCII

DATASET UNSTRUCTURED_GRID
POINTS 14739 float
299 160 0
115 46 0
305 324 0
242 344 0
316 345 0
295 366 0
277 396 0
405 227 0
471 301 0
464 276 0
489 215 0
429 81 0
384 71 0
467 4 0
103 45 0
46 73 0
121 59 0
158 30 0
299 38 0
262 174 0
307 200 0
235 215 0
230 108 0
197 147 0
245 381 0
247 322 0
244 410 0
240 425 0
0 499 0
282 424 0
302 431 0
305 443 0
293 387 0
298 337 0
277 272 0
378 325 0
337 239 0
377 332 0
386 335 0
376 395 0
426 318 0
388 332 0
497 513 0
449 307 0
451 263 0
430 238 0
458 231 0
465 191 0
375 210 0
338 152 0
308 165 0
431 7 0
356 16 0
328 43 0
442 146 0
465 94 0
490 80 0
114 20 0
63 4 0
47 26 0
78 29 0
46 41 0
132 36 0
115 38 0
134 35 0
140 9 0
133 8 0
163 16 0
147 17 0
180 2 0
213 17 0
216 5 0
240 33 0
265 32 0
260 19 0
187 44 0
160 40 0
142 43 0
184 84 0
189 81 0
203 71 0
212 53 0
234 88 0
269 102 0
285 102 0
222 98 0
213 92 0
207 91 0
206 102 0
168 70 0
173 82 0
168 49 0
165 48 0
167 44 0
72 58 0
120 46 0
38 75 0
119 80 0
117 81 0
134 90 0
107 109 0
119 125 0
154 112 0
231 121 0
234 147 0
243 308 0
194 242 0
152 187 0
90 288 0
110 183 0
17 491 0
22 470 0
16 496 0
62 504 0
9 507 0
168 481 0
234 499 0
219 513 0
241 431 0
147 422 0
210 374 0
251 351 0
274 355 0
284 397 0
252 463 0
260 406 0
291 444 0
285 513 0
292 442 0
289 388 0
294 354 0
301 339 0
300 319 0
276 304 0
276 312 0
276 335 0
246 339 0
290 274 0
286 122 0
290 285 0
294 268 0
301 290 0
295 196 0
308 249 0
311 292 0
321 265 0
335 259 0
342 293 0
355 307 0
337 294 0
332 303 0
302 307 0
309 312 0
308 390 0
311 375 0
314 405 0
317 437 0
311 452 0
324 379 0
325 401 0
343 446 0
357 351 0
320 337 0
362 314 0
393 320 0
397 327 0
446 350 0
407 363 0
372 389 0
460 506 0
504 513 0
493 504 0
475 485 0
506 353 0
500 453 0
433 320 0
442 304 0
406 271 0
387 300 0
379 311 0
400 238 0
391 253 0
448 246 0
474 251 0
483 242 0
489 247 0
427 234 0
512 199 0
501 195 0
474 173 0
507 150 0
370 153 0
375 149 0
403 159 0
420 184 0
384 188 0
426 206 0
344 205 0
363 203 0
341 186 0
338 182 0
328 175 0
352 110 0
340 77 0
358 104 0
360 108 0
366 136 0
370 129 0
344 65 0
369 71 0
332 45 0
317 69 0
316 72 0
346 21 0
302 5 0
324 13 0
349 11 0
377 23 0
383 37 0
456 6 0
428 12 0
458 14 0
456 56 0
447 38 0
484 35 0
466 36 0
498 40 0
512 20 0
494 12 0
499 5 0
24 1 0
6 4 0
30 1 0
45 1 0
55 4 0
64 11 0
59 21 0
55 11 0
9 11 0
3 38 0
12 47 0
5 46 0
21 50 0
8 51 0
31 57 0
44 57 0
36 58 0
44 54 0
48 51 0
36 48 0
49 41 0
83 35 0
85 32 0
85 46 0
78 53 0
85 57 0
109 37 0
107 49 0
90 49 0
116 30 0
108 27 0
120 24 0
87 21 0
101 19 0
86 9 0
80 13 0
70 14 0
71 4 0
69 1 0
73 7 0
84 7 0
94 1 0
124 2 0
128 9 0
145 9 0
149 16 0
150 18 0
125 29 0
177 26 0
178 32 0
163 24 0
183 20 0
172 1 0
243 15 0
188 5 0
286 8 0
288 10 0
297 12 0
286 24 0
286 16 0
286 30 0
230 22 0
199 21 0
193 23 0
201 36 0
193 36 0
232 41 0
261 41 0
280 35 0
302 47 0
302 52 0
233 45 0
219 47 0
215 53 0
211 57 0
176 46 0
191 52 0
190 46 0
191 37 0
181 34 0
134 47 0
154 47 0
159 34 0
167 47 0
146 53 0
144 58 0
204 63 0
197 64 0
210 77 0
200 88 0
205 79 0
214 100 0
229 103 0
228 96 0
228 80 0
232 76 0
250 68 0
240 86 0
253 62 0
257 74 0
303 63 0
256 90 0
292 102 0
291 88 0
254 87 0
240 94 0
235 86 0
261 108 0
264 104 0
265 108 0
299 108 0
290 110 0
279 118 0
284 125 0
290 120 0
276 123 0
258 110 0
257 115 0
248 126 0
246 128 0
240 121 0
250 118 0
235 116 0
209 107 0
216 105 0
205 110 0
209 112 0
213 118 0
232 119 0
186 128 0
188 124 0
171 127 0
153 121 0
150 125 0
149 100 0
138 120 0
165 97 0
166 117 0
191 118 0
182 87 0
179 94 0
193 84 0
177 69 0
186 63 0
159 71 0
172 59 0
163 61 0
176 76 0
164 83 0
164 88 0
121 70 0
62 70 0
104 69 0
106 67 0
103 59 0
10 62 0
12 60 0
49 65 0
10 68 0
15 69 0
40 73 0
1 74 0
0 81 0
20 78 0
24 74 0
24 80 0
60 83 0
110 96 0
53 88 0
48 104 0
0 102 0
42 119 0
99 151 0
132 132 0
123 161 0
109 170 0
0 171 0
168 154 0
192 189 0
158 154 0
136 149 0
183 130 0
237 134 0
227 134 0
243 135 0
247 130 0
256 137 0
240 150 0
251 172 0
220 140 0
208 149 0
207 191 0
201 164 0
230 254 0
231 209 0
237 302 0
253 283 0
239 305 0
249 324 0
255 334 0
248 320 0
245 324 0
221 332 0
237 327 0
200 289 0
188 328 0
193 252 0
176 208 0
151 196 0
97 211 0
57 193 0
28 224 0
129 319 0
136 339 0
150 334 0
174 356 0
148 350 0
190 359 0
212 344 0
224 361 0
224 378 0
227 362 0
208 363 0
202 379 0
199 364 0
46 447 0
0 428 0
5 459 0
14 472 0
21 497 0
82 451 0
150 513 0
221 466 0
168 418 0
77 411 0
215 396 0
235 382 0
232 378 0
233 386 0
234 430 0
234 460 0
242 449 0
251 474 0
251 445 0
252 422 0
244 395 0
236 415 0
256 368 0
255 370 0
254 376 0
249 369 0
243 378 0
251 363 0
234 344 0
249 362 0
253 343 0
253 364 0
254 351 0
266 339 0
263 334 0
271 331 0
279 331 0
282 322 0
284 371 0
275 361 0
275 376 0
270 349 0
269 354 0
259 376 0
261 390 0
261 412 0
265 422 0
260 462 0
276 412 0
286 498 0
286 405 0
279 386 0
283 384 0
269 381 0
291 438 0
293 440 0
288 452 0
290 513 0
292 453 0
295 421 0
302 470 0
294 416 0
298 407 0
297 404 0
298 394 0
303 362 0
301 378 0
301 367 0
300 390 0
298 368 0
287 330 0
287 321 0
288 328 0
291 332 0
296 323 0
293 344 0
300 305 0
296 276 0
303 272 0
298 246 0
303 268 0
287 238 0
290 235 0
290 257 0
293 273 0
287 285 0
292 280 0
276 296 0
286 309 0
271 306 0
269 305 0
258 314 0
268 278 0
257 237 0
264 268 0
269 280 0
272 272 0
272 280 0
283 221 0
279 230 0
278 178 0
265 203 0
264 233 0
267 152 0
267 173 0
269 136 0
276 134 0
282 166 0
283 138 0
284 131 0
291 144 0
293 148 0
284 197 0
290 197 0
296 229 0
301 233 0
294 205 0
294 190 0
298 163 0
297 144 0
317 237 0
325 224 0
308 242 0
308 252 0
318 294 0
332 275 0
331 287 0
329 274 0
333 266 0
330 234 0
349 241 0
339 229 0
350 262 0
364 264 0
369 259 0
351 311 0
366 306 0
366 267 0
347 272 0
343 286 0
341 316 0
354 319 0
354 331 0
357 318 0
365 331 0
362 319 0
365 341 0
365 344 0
367 340 0
362 337 0
360 339 0
353 340 0
352 342 0
346 342 0
352 329 0
350 318 0
344 326 0
342 332 0
322 331 0
327 317 0
317 333 0
343 335 0
307 339 0
309 376 0
308 360 0
311 369 0
314 366 0
322 351 0
319 405 0
327 399 0
313 380 0
310 406 0
307 403 0
313 425 0
309 432 0
306 434 0
313 444 0
315 460 0
321 491 0
316 497 0
323 498 0
316 441 0
322 430 0
320 419 0
329 421 0
338 394 0
329 430 0
340 448 0
337 499 0
347 435 0
349 453 0
356 428 0
358 411 0
343 410 0
363 398 0
345 365 0
354 368 0
344 368 0
337 363 0
328 375 0
342 360 0
338 357 0
353 345 0
355 353 0
358 346 0
359 344 0
377 301 0
370 310 0
377 317 0
380 307 0
415 309 0
415 324 0
416 331 0
397 333 0
393 330 0
369 324 0
371 352 0
378 346 0
374 353 0
378 376 0
372 467 0
401 417 0
394 494 0
382 370 0
384 367 0
396 344 0
413 335 0
476 451 0
463 455 0
462 469 0
431 471 0
436 500 0
507 492 0
512 504 0
506 510 0
478 491 0
512 467 0
478 466 0
499 358 0
490 382 0
426 408 0
425 347 0
423 343 0
434 309 0
418 321 0
422 339 0
434 327 0
452 310 0
465 334 0
479 281 0
440 295 0
506 279 0
450 277 0
447 264 0
432 280 0
410 279 0
432 269 0
439 282 0
439 291 0
427 298 0
386 295 0
396 297 0
385 292 0
374 292 0
369 292 0
396 267 0
374 263 0
375 290 0
406 282 0
407 288 0
409 271 0
450 255 0
451 259 0
416 256 0
415 259 0
390 258 0
401 236 0
391 230 0
413 252 0
418 240 0
437 254 0
448 235 0
469 225 0
467 233 0
457 235 0
459 248 0
469 248 0
493 258 0
470 262 0
476 255 0
490 252 0
476 237 0
509 226 0
494 209 0
506 223 0
474 198 0
465 211 0
465 195 0
495 146 0
449 132 0
505 176 0
507 181 0
512 144 0
512 127 0
492 118 0
509 94 0
493 71 0
489 84 0
475 80 0
462 70 0
476 69 0
487 82 0
470 91 0
475 105 0
439 99 0
425 85 0
447 83 0
443 81 0
421 71 0
380 90 0
409 77 0
413 111 0
375 133 0
376 139 0
399 137 0
392 175 0
389 149 0
393 156 0
433 168 0
438 164 0
407 223 0
423 218 0
406 197 0
398 191 0
379 203 0
395 187 0
372 184 0
373 212 0
362 177 0
367 167 0
359 133 0
338 185 0
337 141 0
354 189 0
341 197 0
347 220 0
336 196 0
336 192 0
322 209 0
322 198 0
304 174 0
314 171 0
313 145 0
315 158 0
319 151 0
324 170 0
324 137 0
347 113 0
336 118 0
323 113 0
306 117 0
310 111 0
325 101 0
321 80 0
327 81 0
339 99 0
347 85 0
341 86 0
353 78 0
362 77 0
353 84 0
360 87 0
355 87 0
369 113 0
370 120 0
365 121 0
363 111 0
369 98 0
373 78 0
371 47 0
359 60 0
373 41 0
380 38 0
390 35 0
341 43 0
350 33 0
338 44 0
355 50 0
341 62 0
338 64 0
335 40 0
319 57 0
310 60 0
308 65 0
311 35 0
308 38 0
319 38 0
323 32 0
332 39 0
333 35 0
324 22 0
327 28 0
317 10 0
311 27 0
310 31 0
314 4 0
307 8 0
312 3 0
316 5 0
320 9 0
329 1 0
350 9 0
329 17 0
338 22 0
354 28 0
336 32 0
371 12 0
367 13 0
355 19 0
380 4 0
378 1 0
364 1 0
394 9 0
391 17 0
404 21 0
408 12 0
427 4 0
417 28 0
438 32 0
439 30 0
416 23 0
409 32 0
403 33 0
409 49 0
408 34 0
394 51 0
415 51 0
399 58 0
440 46 0
420 49 0
442 34 0
416 34 0
446 34 0
420 34 0
472 35 0
453 25 0
475 44 0
459 53 0
460 68 0
481 55 0
487 64 0
494 46 0
482 34 0
494 26 0
498 32 0
481 12 0
509 18 0
467 24 0
465 21 0
453 13 0
483 9 0
453 10 0
488 7 0
494 9 0
506 5 0
503 7 0
12 1 0
2 3 0
19 4 0
9 8 0
12 9 0
39 3 0
39 6 0
33 1 0
56 1 0
36 1 0
75 3 0
66 1 0
78 4 0
81 4 0
86 6 0
67 8 0
78 7 0
81 8 0
65 6 0
60 7 0
56 7 0
61 15 0
53 16 0
67 11 0
81 15 0
81 18 0
75 18 0
79 22 0
72 20 0
69 22 0
51 25 0
63 23 0
36 20 0
24 17 0
27 16 0
26 9 0
24 13 0
2 17 0
4 14 0
7 18 0
0 19 0
7 21 0
23 22 0
6 25 0
8 32 0
15 36 0
20 25 0
29 30 0
34 40 0
39 37 0
31 43 0
21 42 0
12 40 0
13 50 0
8 43 0
16 53 0
7 55 0
0 55 0
29 53 0
19 54 0
33 59 0
22 53 0
34 51 0
19 46 0
60 46 0
43 48 0
53 49 0
61 49 0
62 54 0
75 60 0
88 60 0
64 51 0
79 49 0
69 43 0
63 46 0
58 42 0
74 41 0
54 42 0
53 37 0
40 40 0
62 33 0
55 26 0
67 36 0
75 26 0
84 30 0
86 35 0
93 26 0
93 32 0
98 30 0
109 30 0
113 28 0
102 33 0
110 35 0
100 35 0
98 34 0
96 33 0
90 36 0
106 36 0
92 43 0
93 46 0
92 52 0
109 46 0
109 52 0
110 60 0
112 45 0
111 39 0
112 37 0
113 47 0
119 44 0
125 51 0
122 55 0
124 56 0
139 51 0
129 57 0
128 52 0
133 50 0
131 49 0
130 47 0
140 35 0
131 42 0
129 41 0
120 42 0
115 41 0
121 26 0
114 33 0
123 33 0
139 32 0
142 30 0
145 29 0
139 22 0
143 22 0
133 22 0
142 19 0
144 18 0
131 16 0
127 16 0
126 18 0
127 22 0
130 18 0
121 22 0
102 21 0
[...]
CELL_DATA 29121
COLOR_SCALARS ColorSpace 1
0.512418
0.550327
0.282353
0.249673
0.366013
0.529412
0.47451
0.298039
0.261438
0.428758
0.499346
0.333333
0.555556
0.318954
0.496732
0.279739
0.207843
0.338562
0.175163
0.532026
0.364706
0.320261
0.539869
0.177778
0.279739
0.290196
0.282353
0.460131
0.299346
0.184314
0.322876
0.288889
0.271895
0.141176
0.296732
0.559477
0.371242
0.50719
0.304575
0.556863
0.552941
0.381699
0.427451
0.424837
0.556863
0.394771
0.40915
0.333333
0.279739
0.508497
0.44183
0.496732
0.508497
0.552941
0.279739
0.341176
0.360784
0.501961
0.271895
0.457516
0.372549
0.588235
0.339869
0.350327
0.343791
0.31634
0.228758
0.27451
0.286275
0.6
0.380392
0.322876
0.512418
0.52549
0.342484
0.440523
0.528105
0.299346
0.308497
0.321569
0.496732
0.526797
0.495425
0.530719
0.371242
0.524183
0.254902
0.552941
0.335948
0.366013
0.50719
0.328105
0.24183
0.180392
0.295425
0.141176
0.51634
0.334641
0.347712
0.287582
0.420915
0.430065
0.247059
0.30719
0.554248
0.267974
0.356863
0.290196
0.286275
0.552941
0.376471
0.420915
0.309804
0.333333
0.252288
0.299346
0.313725
0.270588
0.473203
0.328105
0.551634
0.398693
0.392157
0.301961
0.398693
0.39085
0.496732
0.138562
0.262745
0.277124
0.334641
0.420915
0.406536
0.368627
0.39085
0.205229
0.184314
0.154248
0.279739
0.137255
0.194771
0.196078
0.173856
0.257516
0.381699
0.39085
0.369935
0.315033
0.478431
0.308497
0.20915
0.169935
0.431373
0.256209
0.312418
0.163399
0.248366
0.235294
0.420915
0.181699
0.271895
0.16732
0.330719
0.538562
0.326797
0.256209
0.458824
0.322876
0.461438
0.369935
0.371242
0.386928
0.355556
0.334641
0.317647
0.351634
0.321569
0.290196
0.328105
0.342484
0.350327
0.4
0.290196
0.333333
0.537255
0.332026
0.324183
0.534641
0.402614
0.560784
0.560784
0.55817
0.304575
0.551634
0.550327
0.403922
0.355556
0.345098
0.569935
0.384314
0.47451
0.462745
0.163399
0.407843
0.551634
0.546405
0.43268
0.55817
0.275817
0.551634
0.542484
0.551634
0.554248
0.48366
0.52549
0.467974
0.284967
0.458824
0.47451
0.471895
0.460131
0.461438
0.481046
0.498039
0.478431
0.479739
0.475817
0.473203
0.249673
0.308497
0.444444
0.47451
0.517647
0.322876
0.29281
0.288889
0.252288
0.25098
0.351634
0.347712
0.487582
0.477124
0.526797
0.464052
0.500654
0.695425
0.479739
0.36732
0.173856
0.261438
0.35817
0.275817
0.313725
0.273203
0.262745
0.282353
0.262745
0.321569
0.449673
0.335948
0.296732
0.626144
0.264052
0.40915
0.267974
0.332026
0.339869
0.155556
0.175163
0.598693
0.475817
0.627451
0.673203
0.575163
0.40915
0.552941
0.547712
0.291503
0.593464
0.288889
0.465359
0.55817
0.257516
0.362092
0.447059
0.509804
0.500654
0.43268
0.503268
0.482353
0.333333
0.384314
0.313725
0.328105
0.315033
0.430065
0.281046
0.447059
0.181699
0.291503
0.393464
0.576471
0.437908
0.500654
0.490196
0.385621
0.279739
0.355556
0.258824
0.31634
0.418301
0.504575
0.515033
0.188235
0.262745
0.415686
0.317647
0.4
0.321569
0.243137
0.359477
0.512418
0.52549
0.512418
0.508497
0.291503
0.40915
0.448366
0.48366
0.500654
0.475817
0.478431
0.51634
0.48366
0.494118
0.51634
0.482353
0.529412
0.517647
0.526797
0.27451
0.52549
0.430065
0.317647
0.490196
0.284967
0.261438
0.372549
0.508497
0.376471
0.384314
0.291503
0.249673
0.494118
0.556863
0.179085
0.24183
0.36732
0.35817
0.281046
0.524183
0.443137
0.352941
0.197386
0.538562
0.522876
0.554248
0.542484
0.171242
0.235294
0.564706
0.25098
0.585621
0.54902
0.556863
0.550327
0.554248
0.554248
0.601307
0.554248
0.354248
0.622222
0.36732
0.555556
0.380392
0.184314
0.243137
0.166013
0.245752
0.324183
0.228758
0.373856
0.301961
0.141176
0.539869
0.226144
0.175163
0.29281
0.360784
0.566013
0.354248
0.202614
0.244444
0.223529
0.265359
0.373856
0.249673
0.279739
0.270588
0.201307
0.253595
0.248366
0.305882
0.171242
0.329412
0.369935
0.406536
0.25098
0.32549
0.337255
0.287582
0.350327
0.301961
0.27451
0.222222
0.19085
0.317647
0.298039
0.286275
0.277124
0.329412
0.28366
0.169935
0.359477
0.321569
0.249673
0.312418
0.324183
0.556863
0.433987
0.262745
0.321569
0.31634
0.281046
0.252288
0.294118
0.239216
0.236601
0.258824
0.265359
0.245752
0.271895
0.287582
0.264052
0.271895
0.25098
0.262745
0.239216
0.25098
0.252288
0.243137
0.264052
0.284967
0.266667
0.303268
0.29281
0.271895
0.265359
0.264052
0.275817
0.339869
0.303268
0.309804
0.282353
0.313725
0.291503
0.330719
0.300654
0.300654
0.25098
0.305882
0.360784
0.322876
0.32549
0.324183
0.313725
0.341176
0.359477
0.354248
0.332026
0.346405
0.401307
0.496732
0.168627
0.262745
0.196078
0.330719
0.363399
0.32549
0.398693
0.278431
0.278431
0.216993
0.509804
0.330719
0.329412
0.273203
0.288889
0.286275
0.237908
0.275817
0.295425
0.30719
0.30719
0.29281
0.305882
0.40915
0.282353
0.257516
0.320261
0.330719
0.328105
0.388235
0.360784
0.343791
0.35817
0.379085
0.406536
0.346405
0.377778
0.346405
0.453595
0.491503
0.428758
0.226144
0.305882
0.379085
0.345098
0.40915
0.213072
0.301961
0.368627
0.197386
0.197386
0.132026
0.214379
0.220915
0.135948
0.166013
0.239216
0.299346
0.4
0.295425
0.176471
0.168627
0.226144
0.286275
0.16732
0.162092
0.192157
0.109804
0.4
0.321569
0.343791
0.253595
0.270588
0.326797
0.308497
0.368627
0.16732
0.291503
0.254902
0.184314
0.163399
0.177778
0.324183
0.248366
0.211765
0.146405
0.352941
0.299346
0.162092
0.312418
0.171242
0.166013
0.201307
0.324183
0.309804
0.339869
0.315033
0.333333
0.168627
0.342484
0.168627
0.379085
0.326797
0.328105
0.508497
0.373856
0.271895
0.402614
0.393464
0.315033
0.313725
0.31634
0.418301
0.572549
0.258824
0.36732
0.233987
0.224837
0.222222
0.277124
0.194771
0.424837
0.420915
0.341176
0.346405
0.262745
0.393464
0.40915
0.39085
0.511111
0.145098
0.230065
0.245752
0.138562
0.150327
0.299346
0.222222
0.305882
0.159477
0.388235
0.2
0.160784
0.176471
0.213072
0.205229
0.2
0.253595
0.147712
0.284967
0.267974
0.169935
0.249673
0.389542
0.249673
0.343791
0.439216
0.375163
0.335948
0.363399
0.270588
0.311111
0.154248
0.216993
0.286275
0.155556
0.410458
0.155556
0.166013
0.281046
0.24183
0.321569
0.55817
0.256209
0.181699
0.379085
0.371242
0.430065
0.559477
0.305882
0.338562
0.286275
0.488889
0.298039
0.332026
0.333333
0.416993
0.334641
0.219608
0.312418
0.401307
0.337255
0.339869
0.288889
0.377778
0.560784
0.270588
0.328105
0.300654
0.55817
0.376471
0.363399
0.326797
0.562092
0.407843
0.562092
0.556863
0.556863
0.550327
0.55817
0.324183
0.55817
0.555556
0.430065
0.55817
0.555556
0.559477
0.300654
0.456209
0.27451
0.465359
0.31634
0.345098
0.397386
0.34902
0.372549
0.352941
0.279739
0.402614
0.299346
0.388235
0.32549
0.245752
0.211765
0.342484
0.322876
0.313725
0.362092
0.537255
0.341176
0.364706
0.398693
0.287582
0.478431
0.444444
0.385621
0.381699
0.379085
0.369935
0.50719
0.383007
0.345098
0.364706
0.277124
0.29281
0.542484
0.342484
0.298039
0.29281
0.369935
0.313725
0.322876
0.366013
0.322876
0.355556
0.334641
0.28366
0.341176
0.416993
0.448366
0.373856
0.376471
0.473203
0.435294
0.393464
0.326797
0.27451
0.405229
0.490196
0.470588
0.534641
0.479739
0.542484
0.504575
0.547712
0.539869
0.555556
0.546405
0.556863
0.554248
0.552941
0.554248
0.556863
0.555556
0.552941
0.556863
0.556863
0.555556
0.55817
0.555556
0.556863
0.560784
0.458824
0.34902
0.475817
0.547712
0.224837
0.371242
0.29281
0.23268
0.55817
0.318954
0.571242
0.552941
0.552941
0.554248
0.55817
0.563399
0.55817
0.556863
0.550327
0.539869
0.555556
0.55817
0.603922
0.538562
0.552941
0.545098
0.512418
0.534641
0.345098
0.481046
0.428758
0.530719
0.338562
0.36732
0.347712
0.298039
0.312418
0.324183
0.350327
0.524183
0.52549
0.538562
0.279739
0.503268
0.51634
0.541176
0.509804
0.530719
0.529412
0.550327
0.534641
0.551634
0.539869
0.542484
0.54902
0.534641
0.551634
0.515033
0.501961
0.50719
0.535948
0.496732
0.518954
0.511111
0.533333
0.500654
0.509804
0.504575
0.496732
0.51634
0.51634
0.406536
0.512418
0.511111
0.351634
0.347712
0.448366
0.454902
0.573856
0.51634
0.503268
0.503268
0.503268
0.508497
0.500654
0.490196
0.475817
0.530719
0.513725
0.479739
0.467974
0.470588
0.470588
0.462745
0.466667
0.487582
0.481046
0.498039
0.49281
0.503268
0.487582
0.499346
0.487582
0.503268
0.499346
0.453595
0.36732
0.461438
0.462745
0.499346
0.458824
0.495425
0.352941
0.488889
0.494118
0.491503
0.154248
0.48366
0.478431
0.362092
0.504575
0.664052
0.338562
0.393464
0.29281
0.488889
0.453595
0.334641
0.343791
0.298039
0.312418
0.339869
0.31634
0.312418
0.396078
0.31634
0.439216
0.499346
0.422222
0.452288
0.515033
0.449673
0.543791
0.372549
0.294118
0.39085
0.354248
0.296732
0.588235
0.490196
0.381699
0.290196
0.477124
0.266667
0.537255
0.50719
0.359477
0.286275
0.25098
0.27451
0.411765
0.260131
0.279739
0.407843
0.368627
0.286275
0.294118
0.290196
0.304575
0.347712
0.386928
0.351634
0.443137
0.279739
0.437908
0.253595
0.277124
0.494118
0.495425
0.55817
0.44183
0.479739
0.618301
0.592157
0.235294
0.436601
0.333333
0.220915
0.414379
0.436601
0.31634
0.622222
0.31634
0.682353
0.458824
0.486275
0.405229
0.479739
0.381699
0.205229
0.288889
0.388235
0.482353
0.481046
0.330719
0.352941
0.503268
0.482353
0.324183
0.376471
0.351634
0.759477
0.470588
0.405229
0.354248
0.309804
0.304575
0.298039
0.226144
0.520261
0.462745
0.313725
0.320261
0.583007
0.39085
0.427451
0.28366
0.452288
0.27451
0.356863
0.64183
0.522876
0.244444
0.330719
0.332026
0.478431
0.277124
0.577778
0.320261
0.346405
0.313725
0.54902
0.687582
0.571242
0.291503
0.552941
0.546405
0.566013
0.535948
0.490196
0.341176
0.262745
0.266667
0.397386
0.40915
0.4
0.352941
0.662745
0.220915
0.377778
0.245752
0.298039
0.291503
0.422222
0.452288
0.290196
0.541176
0.338562
0.517647
0.545098
0.537255
0.546405
0.235294
0.447059
0.481046
0.231373
0.444444
0.422222
0.545098
0.550327
0.320261
0.54902
0.559477
0.32549
0.552941
0.546405
0.538562
0.550327
0.559477
0.375163
0.559477
0.564706
0.265359
0.337255
0.312418
0.248366
0.556863
0.397386
0.407843
0.473203
0.322876
0.294118
0.226144
0.146405
0.575163
0.279739
0.552941
0.55817
0.552941
0.482353
0.54902
0.159477
0.550327
0.315033
0.54902
0.55817
0.257516
0.326797
0.313725
0.341176
0.236601
0.172549
0.550327
0.422222
0.534641
0.350327
0.342484
0.29281
0.266667
0.682353
0.457516
0.403922
0.328105
0.456209
0.471895
0.458824
0.397386
0.369935
0.575163
0.547712
0.543791
0.654902
0.503268
0.611765
0.532026
0.248366
0.471895
0.360784
0.589542
0.35817
0.571242
0.347712
0.479739
0.271895
0.308497
0.29281
0.418301
0.32549
0.467974
0.610458
0.430065
0.515033
0.290196
0.471895
0.284967
0.267974
0.294118
0.266667
0.320261
0.279739
0.321569
0.388235
0.265359
0.30719
0.210458
0.339869
0.25098
0.413072
0.236601
0.266667
0.313725
0.277124
0.300654
0.300654
0.298039
0.296732
0.508497
0.305882
0.27451
0.543791
0.423529
0.410458
0.664052
0.281046
0.273203
0.377778
0.29281
0.662745
0.311111
0.503268
0.315033
0.347712
0.424837
0.286275
0.300654
0.411765
0.427451
0.267974
0.397386
0.313725
0.381699
0.296732
0.397386
0.381699
0.282353
0.403922
0.338562
0.281046
0.226144
0.279739
0.291503
0.499346
0.385621
0.30719
0.572549
0.501961
0.411765
0.216993
0.597386
0.379085
0.415686
0.328105
0.385621
0.529412
0.449673
0.346405
0.496732
0.44183
0.490196
0.477124
0.479739
0.49281
0.482353
0.482353
0.237908
0.494118
0.28366
0.339869
0.318954
0.545098
0.347712
0.564706
0.556863
0.505882
0.498039
0.296732
0.496732
0.484967
0.48366
0.48366
0.501961
0.496732
0.488889
0.495425
0.503268
0.495425
0.509804
0.508497
0.454902
0.183007
0.504575
0.317647
0.332026
0.50719
0.51634
0.513725
0.335948
0.444444
0.286275
0.44183
0.322876
0.296732
0.371242
0.291503
0.304575
0.495425
0.284967
0.333333
0.303268
0.368627
0.296732
0.270588
0.270588
0.257516
0.317647
0.282353
0.322876
0.301961
0.287582
0.39085
0.298039
0.305882
0.418301
0.339869
0.262745
0.52549
0.524183
0.52549
0.51634
0.328105
0.360784
0.294118
0.277124
0.337255
0.312418
0.426144
0.410458
0.342484
0.305882
0.239216
0.512418
0.515033
0.486275
0.496732
0.505882
0.505882
0.482353
0.500654
0.512418
0.254902
0.511111
0.461438
0.299346
0.304575
0.518954
0.522876
0.482353
0.500654
0.494118
0.494118
0.494118
0.481046
0.490196
0.488889
0.479739
0.488889
0.47451
0.486275
0.47451
0.47451
0.484967
0.48366
0.482353
0.487582
0.495425
0.515033
0.526797
0.495425
0.521569
0.511111
0.488889
0.515033
0.522876
0.524183
0.51634
0.52549
0.328105
0.52549
0.328105
0.522876
0.522876
0.526797
0.517647
0.526797
0.524183
0.518954
0.524183
0.532026
0.533333
0.346405
0.440523
0.530719
0.518954
0.396078
0.281046
0.258824
0.366013
0.386928
0.453595
0.228758
0.258824
0.398693
0.392157
0.257516
0.244444
0.397386
0.556863
0.321569
0.372549
0.326797
0.317647
0.295425
0.312418
0.415686
0.352941
0.350327
0.317647
0.439216
0.4
0.478431
0.562092
0.437908
0.473203
0.330719
0.309804
0.326797
0.288889
0.341176
0.445752
0.413072
0.329412
0.486275
0.181699
0.317647
0.385621
0.419608
0.308497
0.403922
0.543791
0.34902
0.394771
0.312418
0.48366
0.419608
0.556863
0.471895
0.284967
0.534641
0.505882
0.364706
0.252288
0.462745
0.373856
0.543791
0.535948
0.422222
0.352941
0.51634
0.39085
0.216993
0.271895
0.350327
0.422222
0.513725
0.542484
0.448366
0.363399
0.524183
0.334641
0.427451
0.488889
0.543791
0.543791
0.512418
0.518954
0.546405
0.547712
0.517647
0.537255
0.332026
0.547712
0.427451
0.554248
0.552941
0.508497
0.347712
0.55817
0.504575
0.529412
0.508497
0.533333
0.521569
0.533333
0.278431
0.51634
0.452288
0.50719
0.267974
0.329412
0.264052
0.375163
0.277124
0.34902
0.309804
0.369935
0.298039
0.267974
0.265359
0.313725
0.271895
0.335948
0.439216
0.326797
0.554248
0.30719
0.494118
0.470588
0.356863
0.264052
0.371242
0.373856
0.326797
0.406536
0.346405
0.484967
0.320261
0.397386
0.512418
0.538562
0.564706
0.552941
0.577778
0.556863
0.563399
0.545098
0.554248
0.552941
0.560784
0.555556
0.555556
0.560784
0.552941
0.529412
0.554248
0.551634
0.210458
0.464052
0.294118
0.240523
0.552941
0.551634
0.545098
0.552941
0.543791
0.135948
0.552941
0.552941
0.554248
0.435294
0.596078
0.228758
0.560784
0.162092
0.556863
0.535948
0.224837
0.223529
0.363399
0.330719
0.185621
0.180392
0.555556
0.354248
0.448366
0.29281
0.65098
0.230065
0.428758
0.428758
0.282353
0.333333
0.552941
0.322876
0.538562
0.350327
0.426144
0.596078
0.282353
0.301961
0.372549
0.224837
0.355556
0.311111
0.398693
0.311111
0.461438
0.376471
0.173856
0.236601
0.324183
0.179085
0.216993
0.254902
0.203922
0.173856
0.185621
0.150327
0.194771
0.146405
0.194771
0.183007
0.207843
0.147712
0.228758
0.219608
0.180392
0.220915
0.219608
0.166013
0.273203
0.257516
0.318954
0.186928
0.335948
0.396078
0.301961
0.267974
0.264052
0.303268
0.265359
0.197386
0.430065
0.415686
0.15817
0.405229
0.290196
0.215686
0.171242
0.193464
0.275817
0.452288
0.345098
0.326797
0.321569
0.31634
0.359477
0.220915
0.290196
0.31634
0.332026
0.273203
0.308497
0.311111
0.184314
0.271895
0.298039
0.300654
0.281046
0.322876
0.407843
0.339869
0.247059
0.230065
0.240523
0.315033
0.216993
0.252288
0.281046
0.328105
0.284967
0.249673
0.341176
0.189542
0.219608
0.236601
0.328105
0.269281
0.27451
0.287582
0.301961
0.235294
0.282353
0.236601
0.277124
0.34902
0.318954
0.36732
0.333333
0.384314
0.318954
0.318954
0.201307
0.29281
0.164706
0.305882
0.354248
0.343791
0.214379
0.364706
0.324183
0.34902
0.245752
0.313725
0.288889
0.288889
0.282353
0.264052
0.360784
0.388235
0.224837
0.364706
0.261438
0.286275
0.338562
0.262745
0.304575
0.28366
0.257516
0.346405
0.354248
0.258824
0.240523
0.352941
0.230065
0.34902
0.351634
0.305882
0.275817
0.286275
0.309804
0.354248
0.318954
0.291503
0.277124
0.420915
0.30719
0.333333
0.376471
0.330719
0.330719
0.405229
0.322876
0.320261
0.461438
0.318954
0.398693
0.313725
0.326797
0.322876
0.322876
0.317647
0.308497
0.303268
0.415686
0.380392
0.333333
0.470588
0.266667
0.418301
0.29281
0.224837
0.494118
0.321569
0.312418
0.218301
0.298039
0.299346
0.296732
0.206536
0.47451
0.301961
0.224837
0.342484
0.279739
0.295425
0.373856
0.291503
0.273203
0.271895
0.197386
0.256209
0.235294
0.301961
0.39085
0.237908
0.231373
0.269281
0.273203
0.233987
0.236601
0.233987
0.248366
0.253595
0.244444
0.202614
0.210458
0.334641
0.266667
0.257516
0.457516
0.322876
0.364706
0.281046
0.379085
0.25098
0.240523
0.237908
0.265359
0.264052
0.258824
0.256209
0.271895
0.239216
0.24183
0.254902
0.308497
0.224837
0.230065
0.235294
0.277124
0.236601
0.228758
0.288889
0.226144
0.28366
0.244444
0.267974
0.253595
0.290196
0.380392
0.261438
0.347712
0.278431
0.321569
0.28366
0.222222
0.245752
0.270588
0.281046
0.256209
0.312418
0.335948
0.286275
0.265359
0.260131
0.258824
0.267974
0.252288
0.252288
0.284967
0.266667
0.267974
0.278431
0.29281
0.278431
0.300654
0.277124
0.304575
0.337255
0.296732
0.304575
0.305882
0.30719
0.28366
0.303268
0.273203
0.313725
0.275817
0.264052
0.296732
0.281046
0.264052
0.295425
0.261438
0.258824
0.303268
0.295425
0.270588
0.243137
0.301961
0.299346
0.264052
0.278431
0.269281
0.258824
0.256209
0.257516
0.261438
0.256209
0.261438
0.312418
0.257516
0.257516
0.258824
0.237908
0.24183
0.269281
0.252288
0.281046
0.252288
0.291503
0.261438
0.265359
0.267974
0.278431
0.243137
0.261438
0.240523
0.244444
0.25098
0.240523
0.28366
0.252288
0.245752
0.248366
0.28366
0.262745
0.290196
0.288889
0.253595
0.279739
0.271895
0.261438
0.29281
0.315033
0.291503
0.257516
0.28366
0.267974
0.260131
0.235294
0.330719
0.282353
0.277124
0.320261
0.318954
0.32549
0.329412
0.288889
0.328105
0.326797
0.338562
0.341176
0.486275
0.379085
0.326797
0.322876
0.34902
0.329412
0.35817
0.311111
0.324183
0.32549
0.326797
0.298039
0.324183
0.341176
0.304575
0.334641
0.296732
0.273203
0.266667
0.298039
0.31634
0.30719
0.278431
0.269281
0.311111
0.286275
0.288889
0.30719
0.362092
0.214379
0.315033
0.239216
0.354248
0.290196
0.312418
0.284967
0.288889
0.197386
0.305882
0.355556
0.398693
0.320261
0.32549
0.213072
0.345098
0.350327
0.277124
0.219608
0.351634
0.224837
0.295425
0.186928
0.248366
0.335948
0.396078
0.288889
0.287582
0.339869
0.32549
0.354248
0.401307
0.362092
0.356863
0.393464
0.338562
0.343791
0.34902
0.288889
0.338562
0.299346
0.337255
0.258824
0.301961
0.243137
0.243137
0.371242
0.428758
0.322876
0.448366
0.585621
0.315033
0.206536
0.332026
0.169935
0.447059
0.577778
0.47451
0.254902
0.305882
0.522876
0.581699
0.487582
0.356863
0.332026
0.386928
0.50719
0.496732
0.377778
0.334641
0.359477
0.495425
0.524183
0.333333
0.317647
0.300654
0.275817
0.321569
0.433987
0.332026
0.475817
0.279739
0.352941
0.509804
0.465359
0.517647
0.44183
0.508497
0.413072
0.467974
0.498039
0.368627
0.458824
0.385621
0.369935
0.343791
0.371242
0.477124
0.550327
0.318954
0.418301
0.330719
0.313725
0.247059
0.398693
0.363399
0.482353
0.317647
0.244444
0.398693
0.393464
0.164706
0.312418
0.193464
0.309804
0.269281
0.194771
0.220915
0.185621
0.34902
0.376471
0.269281
0.30719
0.397386
0.384314
0.351634
0.341176
0.359477
0.299346
0.359477
0.359477
0.396078
0.27451
0.359477
0.287582
0.270588
0.334641
0.222222
0.337255
0.207843
0.237908
0.230065
0.260131
0.237908
0.290196
0.213072
0.277124
0.363399
0.339869
0.329412
0.372549
0.354248
0.261438
0.35817
0.339869
0.352941
0.261438
0.352941
0.308497
0.362092
0.379085
0.388235
0.337255
0.467974
0.342484
0.385621
0.342484
0.372549
0.333333
0.487582
0.269281
0.308497
0.36732
0.359477
0.341176
0.151634
0.278431
0.398693
0.25098
0.346405
0.154248
0.303268
0.448366
0.337255
0.330719
0.373856
0.346405
0.418301
0.275817
0.405229
0.397386
0.362092
0.39085
0.392157
0.398693
0.509804
0.406536
0.447059
0.4
0.380392
0.326797
0.381699
0.36732
0.443137
0.4
0.371242
0.414379
0.433987
0.398693
0.402614
0.398693
0.40915
0.396078
0.407843
0.286275
0.351634
0.254902
0.290196
0.351634
0.313725
0.386928
0.350327
0.315033
0.299346
0.237908
0.201307
0.230065
0.210458
0.342484
0.211765
0.261438
0.290196
0.332026
0.333333
0.366013
0.245752
0.142484
0.143791
0.126797
0.216993
0.133333
0.169935
0.301961
0.29281
0.19085
0.31634
0.184314
0.171242
0.237908
0.34902
0.308497
0.286275
0.145098
0.356863
0.118954
0.309804
0.173856
0.134641
0.315033
0.189542
0.121569
0.135948
0.124183
0.12549
0.122876
0.160784
0.16732
0.16732
0.296732
0.233987
0.175163
0.164706
0.176471
0.270588
0.172549
0.142484
0.203922
0.277124
0.328105
0.235294
0.258824
0.277124
0.249673
0.29281
0.288889
0.388235
0.257516
0.279739
0.197386
0.171242
0.179085
0.198693