# vtk DataFile Version 1.0
Unstructured Grid Example
ASCII

DATASET UNSTRUCTURED_GRID
POINTS 21052 float
287 137 0
25 403 0
340 317 0
401 252 0
304 26 0
191 60 0
220 1 0
36 95 0
197 119 0
264 145 0
237 355 0
43 202 0
371 360 0
291 382 0
275 314 0
376 345 0
403 283 0
290 276 0
278 184 0
502 210 0
28 79 0
20 11 0
52 170 0
76 87 0
114 59 0
123 148 0
245 158 0
214 233 0
245 227 0
235 218 0
250 194 0
195 183 0
151 181 0
68 204 0
25 202 0
224 248 0
154 246 0
82 245 0
204 246 0
203 389 0
192 458 0
200 465 0
143 513 0
248 357 0
271 372 0
241 485 0
282 477 0
269 313 0
286 311 0
273 307 0
231 237 0
299 425 0
305 264 0
387 369 0
375 432 0
304 446 0
326 505 0
365 513 0
512 330 0
420 369 0
490 495 0
502 286 0
486 277 0
416 274 0
507 269 0
463 258 0
500 178 0
512 70 0
495 144 0
475 100 0
465 161 0
404 92 0
436 234 0
404 209 0
421 62 0
391 67 0
414 55 0
299 10 0
449 14 0
465 40 0
489 52 0
497 1 0
71 56 0
22 8 0
56 12 0
11 57 0
92 64 0
77 68 0
78 76 0
138 57 0
123 79 0
115 78 0
141 73 0
103 57 0
103 51 0
129 12 0
135 24 0
144 16 0
142 8 0
147 37 0
152 29 0
159 16 0
164 40 0
261 8 0
181 56 0
242 56 0
255 81 0
163 66 0
149 41 0
148 52 0
145 43 0
144 76 0
159 95 0
147 108 0
205 105 0
209 89 0
209 96 0
214 104 0
217 86 0
215 130 0
224 126 0
272 153 0
232 115 0
213 167 0
201 125 0
189 175 0
187 176 0
94 154 0
136 157 0
106 157 0
127 174 0
134 152 0
136 135 0
83 133 0
123 131 0
77 133 0
80 119 0
2 107 0
38 134 0
39 138 0
36 139 0
10 167 0
41 161 0
54 185 0
44 181 0
78 178 0
89 189 0
101 189 0
148 182 0
133 183 0
160 192 0
187 191 0
180 198 0
182 211 0
158 203 0
112 221 0
56 223 0
45 214 0
90 281 0
139 226 0
133 271 0
69 304 0
116 412 0
133 493 0
15 476 0
0 471 0
161 376 0
154 500 0
175 372 0
194 293 0
152 249 0
187 227 0
163 242 0
161 224 0
200 427 0
250 426 0
249 437 0
200 442 0
205 504 0
202 513 0
245 499 0
250 505 0
271 508 0
267 491 0
274 478 0
258 417 0
267 404 0
265 402 0
252 407 0
272 376 0
272 350 0
261 376 0
240 388 0
237 342 0
215 295 0
208 327 0
219 338 0
218 238 0
207 202 0
226 224 0
240 261 0
251 241 0
261 180 0
259 216 0
254 179 0
294 258 0
277 260 0
293 247 0
313 267 0
325 263 0
336 270 0
337 267 0
339 331 0
341 329 0
346 300 0
334 278 0
334 343 0
287 287 0
308 345 0
282 270 0
307 413 0
297 391 0
294 416 0
302 441 0
289 447 0
297 457 0
289 509 0
343 400 0
334 457 0
331 388 0
348 388 0
338 357 0
344 354 0
334 347 0
308 350 0
382 352 0
349 349 0
364 358 0
350 364 0
363 392 0
362 377 0
373 513 0
476 377 0
392 463 0
466 466 0
436 495 0
421 348 0
466 347 0
411 342 0
422 318 0
444 268 0
470 268 0
462 307 0
474 317 0
419 309 0
413 273 0
400 297 0
387 316 0
416 263 0
411 267 0
411 241 0
396 247 0
427 249 0
449 245 0
474 237 0
483 242 0
455 217 0
488 229 0
432 214 0
470 211 0
413 207 0
508 150 0
501 163 0
405 180 0
384 167 0
384 170 0
386 180 0
403 198 0
398 203 0
380 210 0
395 215 0
332 183 0
352 224 0
342 221 0
353 201 0
330 210 0
323 212 0
315 194 0
281 184 0
286 170 0
280 162 0
280 155 0
296 177 0
304 150 0
352 153 0
338 153 0
378 182 0
357 127 0
403 132 0
416 150 0
335 146 0
301 130 0
274 126 0
279 137 0
359 103 0
314 63 0
301 48 0
374 8 0
389 124 0
421 43 0
421 23 0
427 91 0
443 79 0
429 35 0
457 79 0
439 80 0
441 93 0
460 118 0
447 103 0
429 124 0
495 130 0
506 147 0
488 68 0
473 77 0
461 57 0
472 56 0
477 48 0
494 46 0
51 15 0
28 4 0
4 11 0
58 15 0
63 7 0
91 10 0
93 8 0
82 19 0
90 25 0
84 31 0
59 32 0
50 20 0
27 26 0
35 24 0
7 33 0
9 49 0
6 38 0
3 55 0
16 66 0
46 70 0
18 97 0
28 102 0
55 111 0
73 112 0
84 110 0
62 93 0
88 80 0
84 58 0
87 54 0
90 43 0
105 62 0
111 54 0
107 69 0
101 76 0
96 92 0
98 98 0
94 109 0
132 95 0
144 96 0
136 115 0
145 113 0
117 95 0
150 64 0
145 57 0
134 56 0
130 28 0
137 48 0
144 49 0
127 49 0
122 26 0
102 28 0
119 52 0
99 40 0
97 16 0
97 6 0
122 14 0
98 1 0
130 10 0
130 16 0
131 8 0
138 21 0
155 27 0
166 10 0
170 30 0
165 47 0
162 48 0
157 58 0
159 48 0
186 42 0
179 61 0
195 65 0
200 45 0
195 39 0
179 34 0
181 20 0
185 10 0
221 24 0
216 42 0
217 23 0
205 36 0
227 36 0
258 1 0
275 3 0
282 6 0
274 54 0
282 68 0
278 55 0
257 45 0
252 55 0
229 56 0
235 61 0
211 51 0
231 93 0
226 74 0
219 74 0
247 90 0
256 71 0
269 72 0
276 71 0
275 94 0
276 104 0
258 93 0
250 100 0
239 95 0
233 97 0
214 114 0
239 114 0
201 102 0
191 105 0
199 108 0
209 99 0
180 96 0
195 85 0
187 91 0
192 82 0
157 82 0
159 72 0
161 85 0
174 87 0
157 89 0
157 110 0
150 102 0
177 114 0
162 126 0
163 118 0
175 125 0
157 131 0
149 133 0
176 145 0
187 136 0
204 145 0
190 148 0
199 148 0
196 144 0
208 137 0
201 122 0
215 117 0
193 115 0
234 128 0
221 137 0
217 137 0
242 124 0
268 136 0
280 129 0
282 121 0
266 143 0
268 146 0
264 142 0
260 148 0
258 146 0
255 143 0
224 140 0
232 141 0
254 153 0
248 156 0
235 151 0
264 149 0
275 149 0
277 161 0
279 157 0
276 179 0
280 182 0
274 172 0
254 172 0
247 182 0
245 184 0
243 178 0
244 169 0
210 163 0
183 172 0
212 170 0
226 163 0
197 160 0
229 155 0
230 152 0
172 151 0
158 165 0
145 163 0
158 153 0
160 173 0
152 177 0
160 181 0
168 181 0
163 184 0
105 173 0
115 168 0
104 170 0
103 172 0
102 177 0
79 173 0
100 172 0
88 157 0
77 155 0
97 159 0
94 165 0
100 156 0
108 166 0
113 166 0
124 162 0
99 145 0
108 151 0
101 134 0
135 127 0
101 121 0
122 117 0
141 118 0
105 120 0
86 138 0
93 135 0
92 123 0
94 133 0
80 139 0
77 139 0
85 142 0
85 153 0
72 150 0
73 159 0
67 151 0
69 144 0
55 142 0
62 130 0
74 120 0
1 121 0
44 119 0
43 117 0
41 115 0
48 130 0
20 146 0
23 149 0
2 154 0
51 173 0
0 161 0
21 165 0
38 172 0
57 173 0
66 163 0
68 170 0
75 173 0
48 186 0
51 176 0
54 174 0
66 184 0
47 181 0
28 186 0
14 186 0
6 184 0
33 190 0
8 187 0
7 192 0
24 194 0
6 198 0
9 208 0
14 203 0
60 204 0
49 209 0
51 211 0
62 198 0
83 194 0
85 193 0
87 190 0
43 189 0
120 192 0
99 196 0
150 195 0
151 197 0
165 192 0
190 198 0
189 193 0
126 200 0
132 212 0
187 205 0
155 206 0
124 198 0
107 207 0
90 207 0
99 208 0
153 222 0
152 213 0
158 216 0
168 212 0
191 219 0
198 212 0
200 213 0
190 241 0
193 246 0
177 223 0
174 234 0
167 226 0
166 235 0
147 239 0
144 233 0
91 227 0
134 231 0
127 245 0
128 227 0
143 226 0
111 218 0
132 216 0
142 213 0
26 224 0
4 221 0
68 215 0
47 228 0
0 231 0
71 232 0
56 238 0
86 238 0
0 262 0
0 297 0
0 257 0
13 273 0
59 246 0
81 320 0
92 261 0
72 400 0
79 355 0
61 393 0
70 343 0
53 387 0
36 396 0
9 384 0
8 377 0
13 455 0
6 421 0
8 406 0
4 476 0
11 482 0
22 494 0
1 509 0
2 499 0
62 485 0
91 513 0
86 489 0
50 507 0
42 484 0
42 468 0
69 414 0
33 428 0
108 479 0
93 423 0
157 435 0
115 482 0
154 485 0
128 506 0
138 497 0
172 503 0
173 508 0
167 502 0
179 453 0
207 451 0
176 406 0
178 440 0
190 425 0
194 368 0
196 388 0
197 287 0
180 303 0
170 361 0
165 289 0
162 359 0
159 284 0
127 253 0
106 284 0
144 249 0
129 248 0
155 254 0
167 272 0
179 252 0
179 280 0
225 363 0
210 346 0
244 352 0
245 365 0
245 355 0
248 352 0
247 339 0
250 386 0
253 368 0
250 369 0
247 388 0
237 374 0
225 403 0
231 380 0
217 400 0
219 429 0
209 414 0
216 405 0
219 405 0
225 447 0
221 450 0
219 493 0
237 494 0
248 457 0
252 493 0
252 462 0
240 448 0
249 422 0
248 409 0
252 414 0
246 407 0
255 441 0
254 439 0
255 449 0
267 453 0
258 459 0
253 466 0
261 510 0
273 487 0
273 499 0
275 482 0
273 460 0
270 446 0
269 442 0
279 440 0
281 445 0
274 385 0
277 383 0
274 391 0
272 399 0
271 424 0
268 419 0
263 397 0
258 420 0
267 370 0
260 368 0
256 381 0
268 367 0
268 347 0
270 365 0
274 377 0
282 358 0
278 310 0
278 321 0
280 337 0
281 299 0
278 291 0
273 280 0
278 267 0
261 304 0
264 285 0
266 309 0
272 309 0
262 311 0
270 311 0
272 314 0
269 325 0
257 321 0
261 322 0
244 319 0
238 321 0
223 331 0
214 317 0
210 318 0
214 332 0
225 278 0
215 303 0
217 280 0
233 276 0
245 306 0
254 290 0
249 275 0
260 273 0
246 248 0
246 261 0
245 265 0
244 252 0
210 257 0
220 265 0
225 254 0
210 236 0
208 220 0
212 200 0
227 231 0
240 187 0
243 233 0
244 209 0
241 234 0
246 218 0
251 209 0
263 217 0
270 210 0
254 218 0
251 219 0
255 226 0
270 256 0
275 253 0
282 253 0
277 257 0
272 245 0
275 236 0
280 222 0
279 197 0
278 207 0
299 231 0
286 227 0
291 240 0
298 257 0
290 260 0
290 271 0
296 266 0
324 247 0
303 260 0
314 280 0
304 274 0
303 240 0
325 237 0
304 226 0
300 234 0
337 229 0
335 240 0
336 234 0
342 237 0
352 241 0
368 235 0
369 227 0
359 264 0
371 257 0
353 251 0
352 286 0
346 270 0
334 243 0
325 252 0
340 255 0
324 320 0
319 310 0
333 308 0
340 293 0
364 307 0
370 296 0
357 288 0
352 326 0
369 344 0
341 341 0
347 347 0
338 334 0
334 331 0
319 335 0
319 347 0
292 338 0
318 345 0
312 308 0
318 315 0
292 304 0
317 302 0
300 287 0
298 289 0
288 307 0
289 292 0
290 308 0
292 314 0
292 322 0
284 323 0
290 333 0
288 336 0
293 361 0
285 366 0
293 357 0
300 372 0
309 374 0
310 376 0
309 378 0
313 379 0
314 381 0
307 379 0
301 393 0
293 394 0
292 406 0
285 400 0
288 407 0
290 418 0
294 408 0
283 419 0
295 451 0
299 469 0
298 497 0
284 496 0
284 505 0
317 443 0
316 467 0
312 466 0
305 475 0
305 441 0
307 422 0
315 410 0
315 407 0
323 418 0
317 406 0
326 406 0
328 424 0
330 431 0
325 485 0
333 508 0
341 437 0
334 451 0
346 493 0
359 490 0
344 435 0
353 426 0
359 417 0
367 416 0
367 394 0
370 376 0
365 383 0
350 382 0
333 369 0
317 378 0
324 372 0
327 397 0
332 367 0
332 348 0
325 349 0
330 368 0
344 366 0
352 353 0
361 364 0
369 362 0
382 322 0
374 299 0
388 325 0
396 308 0
404 297 0
402 321 0
409 304 0
396 327 0
406 326 0
404 344 0
402 331 0
393 337 0
381 330 0
375 331 0
376 348 0
374 388 0
391 365 0
388 408 0
383 402 0
379 417 0
379 434 0
373 462 0
389 507 0
407 425 0
409 506 0
399 406 0
392 387 0
396 370 0
400 366 0
412 357 0
395 355 0
436 454 0
437 420 0
441 461 0
420 497 0
439 506 0
449 513 0
455 499 0
509 503 0
467 503 0
502 484 0
487 491 0
482 465 0
485 419 0
467 400 0
465 417 0
471 350 0
484 374 0
494 372 0
490 345 0
435 345 0
431 337 0
426 390 0
426 359 0
429 300 0
416 309 0
426 307 0
426 320 0
452 303 0
454 300 0
457 311 0
512 299 0
508 292 0
505 293 0
479 280 0
472 275 0
494 264 0
489 262 0
470 262 0
445 265 0
433 257 0
447 264 0
468 266 0
443 273 0
454 282 0
443 282 0
463 294 0
403 267 0
429 291 0
420 273 0
417 270 0
397 289 0
392 277 0
378 287 0
375 290 0
[...]
CELL_DATA 41651
COLOR_SCALARS ColorSpace 1
0.545098
0.556863
0.32549
0.537255
0.479739
0.462745
0.533333
0.556863
0.518954
0.194771
0.551634
0.303268
0.284967
0.420915
0.542484
0.543791
0.300654
0.350327
0.546405
0.547712
0.339869
0.360784
0.490196
0.481046
0.546405
0.300654
0.31634
0.537255
0.51634
0.273203
0.424837
0.330719
0.559477
0.552941
0.552941
0.524183
0.547712
0.253595
0.505882
0.551634
0.555556
0.490196
0.396078
0.2
0.298039
0.552941
0.555556
0.54902
0.562092
0.539869
0.580392
0.248366
0.559477
0.542484
0.555556
0.552941
0.55817
0.552941
0.552941
0.551634
0.555556
0.54902
0.550327
0.537255
0.529412
0.537255
0.547712
0.504575
0.500654
0.524183
0.534641
0.539869
0.193464
0.486275
0.500654
0.248366
0.482353
0.494118
0.465359
0.624837
0.478431
0.342484
0.305882
0.257516
0.216993
0.363399
0.486275
0.496732
0.635294
0.51634
0.40915
0.27451
0.581699
0.253595
0.534641
0.541176
0.398693
0.478431
0.284967
0.554248
0.267974
0.496732
0.405229
0.313725
0.413072
0.479739
0.534641
0.482353
0.494118
0.530719
0.513725
0.499346
0.495425
0.533333
0.512418
0.518954
0.269281
0.159477
0.511111
0.532026
0.509804
0.260131
0.4
0.541176
0.175163
0.524183
0.169935
0.55817
0.51634
0.524183
0.552941
0.52549
0.526797
0.223529
0.535948
0.576471
0.458824
0.54902
0.529412
0.296732
0.466667
0.355556
0.416993
0.248366
0.305882
0.443137
0.333333
0.322876
0.235294
0.324183
0.377778
0.398693
0.352941
0.326797
0.261438
0.23268
0.362092
0.384314
0.419608
0.317647
0.262745
0.211765
0.177778
0.499346
0.352941
0.535948
0.386928
0.295425
0.439216
0.356863
0.554248
0.546405
0.552941
0.245752
0.406536
0.264052
0.160784
0.332026
0.36732
0.261438
0.227451
0.303268
0.375163
0.347712
0.393464
0.339869
0.433987
0.394771
0.51634
0.401307
0.520261
0.368627
0.36732
0.34902
0.422222
0.154248
0.202614
0.423529
0.359477
0.313725
0.193464
0.326797
0.273203
0.267974
0.469281
0.296732
0.537255
0.508497
0.317647
0.495425
0.266667
0.295425
0.416993
0.449673
0.403922
0.342484
0.554248
0.299346
0.219608
0.160784
0.181699
0.413072
0.309804
0.332026
0.299346
0.267974
0.162092
0.573856
0.551634
0.343791
0.304575
0.359477
0.45098
0.313725
0.177778
0.560784
0.556863
0.55817
0.555556
0.55817
0.55817
0.55817
0.551634
0.551634
0.552941
0.555556
0.559477
0.552941
0.554248
0.54902
0.551634
0.555556
0.402614
0.555556
0.552941
0.552941
0.555556
0.563399
0.554248
0.552941
0.537255
0.552941
0.526797
0.51634
0.346405
0.550327
0.551634
0.552941
0.543791
0.550327
0.554248
0.54902
0.54902
0.552941
0.545098
0.539869
0.546405
0.552941
0.550327
0.543791
0.54902
0.546405
0.554248
0.537255
0.54902
0.54902
0.552941
0.550327
0.551634
0.551634
0.54902
0.542484
0.552941
0.54902
0.550327
0.541176
0.550327
0.543791
0.542484
0.541176
0.537255
0.539869
0.535948
0.541176
0.534641
0.509804
0.545098
0.535948
0.528105
0.486275
0.533333
0.515033
0.498039
0.475817
0.471895
0.469281
0.547712
0.470588
0.512418
0.520261
0.499346
0.477124
0.479739
0.52549
0.496732
0.528105
0.51634
0.541176
0.537255
0.547712
0.541176
0.543791
0.538562
0.543791
0.542484
0.491503
0.380392
0.494118
0.504575
0.495425
0.653595
0.495425
0.488889
0.481046
0.475817
0.479739
0.488889
0.477124
0.478431
0.479739
0.479739
0.479739
0.481046
0.48366
0.124183
0.500654
0.271895
0.460131
0.386928
0.36732
0.593464
0.631373
0.249673
0.386928
0.486275
0.308497
0.415686
0.482353
0.381699
0.422222
0.539869
0.402614
0.501961
0.52549
0.535948
0.522876
0.420915
0.521569
0.500654
0.542484
0.537255
0.545098
0.545098
0.542484
0.54902
0.537255
0.414379
0.541176
0.546405
0.554248
0.559477
0.547712
0.624837
0.554248
0.554248
0.287582
0.542484
0.545098
0.30719
0.538562
0.304575
0.377778
0.539869
0.482353
0.626144
0.406536
0.535948
0.479739
0.379085
0.249673
0.345098
0.282353
0.615686
0.414379
0.312418
0.266667
0.465359
0.499346
0.333333
0.496732
0.431373
0.369935
0.628758
0.339869
0.373856
0.456209
0.495425
0.47451
0.454902
0.379085
0.568627
0.588235
0.219608
0.48366
0.256209
0.505882
0.504575
0.477124
0.482353
0.401307
0.50719
0.496732
0.640523
0.40915
0.389542
0.294118
0.300654
0.581699
0.406536
0.677124
0.282353
0.343791
0.369935
0.273203
0.262745
0.515033
0.515033
0.44183
0.436601
0.420915
0.284967
0.511111
0.445752
0.424837
0.6
0.513725
0.511111
0.48366
0.486275
0.498039
0.477124
0.496732
0.494118
0.478431
0.478431
0.518954
0.533333
0.509804
0.513725
0.275817
0.315033
0.440523
0.512418
0.321569
0.369935
0.534641
0.388235
0.413072
0.530719
0.529412
0.51634
0.260131
0.677124
0.228758
0.360784
0.324183
0.324183
0.354248
0.376471
0.464052
0.339869
0.503268
0.416993
0.394771
0.368627
0.341176
0.481046
0.466667
0.551634
0.279739
0.444444
0.396078
0.266667
0.503268
0.50719
0.524183
0.333333
0.528105
0.291503
0.547712
0.243137
0.552941
0.52549
0.552941
0.552941
0.552941
0.526797
0.546405
0.539869
0.555556
0.559477
0.559477
0.555556
0.552941
0.538562
0.552941
0.490196
0.552941
0.552941
0.555556
0.619608
0.555556
0.545098
0.235294
0.572549
0.55817
0.552941
0.218301
0.264052
0.537255
0.440523
0.653595
0.559477
0.383007
0.333333
0.543791
0.48366
0.543791
0.291503
0.546405
0.555556
0.555556
0.555556
0.566013
0.396078
0.422222
0.363399
0.551634
0.406536
0.44183
0.176471
0.273203
0.559477
0.490196
0.397386
0.556863
0.552941
0.560784
0.179085
0.227451
0.469281
0.555556
0.560784
0.172549
0.155556
0.169935
0.445752
0.342484
0.168627
0.401307
0.645752
0.237908
0.488889
0.175163
0.411765
0.192157
0.135948
0.180392
0.266667
0.55817
0.183007
0.312418
0.337255
0.312418
0.351634
0.469281
0.520261
0.389542
0.290196
0.313725
0.301961
0.329412
0.320261
0.373856
0.335948
0.445752
0.294118
0.560784
0.520261
0.47451
0.317647
0.562092
0.515033
0.542484
0.547712
0.488889
0.547712
0.243137
0.271895
0.29281
0.299346
0.287582
0.286275
0.330719
0.235294
0.322876
0.329412
0.258824
0.262745
0.290196
0.25098
0.329412
0.245752
0.24183
0.266667
0.265359
0.25098
0.363399
0.311111
0.473203
0.231373
0.248366
0.29281
0.267974
0.389542
0.291503
0.175163
0.282353
0.271895
0.32549
0.296732
0.264052
0.278431
0.261438
0.291503
0.298039
0.257516
0.265359
0.270588
0.24183
0.281046
0.269281
0.291503
0.278431
0.309804
0.295425
0.411765
0.266667
0.509804
0.31634
0.552941
0.551634
0.491503
0.555556
0.552941
0.503268
0.555556
0.546405
0.537255
0.545098
0.360784
0.537255
0.372549
0.333333
0.298039
0.338562
0.379085
0.328105
0.311111
0.377778
0.290196
0.347712
0.317647
0.313725
0.420915
0.39085
0.511111
0.309804
0.541176
0.552941
0.550327
0.546405
0.554248
0.397386
0.611765
0.572549
0.550327
0.560784
0.393464
0.556863
0.517647
0.49281
0.529412
0.363399
0.377778
0.48366
0.427451
0.484967
0.496732
0.342484
0.593464
0.279739
0.566013
0.375163
0.218301
0.521569
0.416993
0.411765
0.301961
0.345098
0.322876
0.355556
0.380392
0.291503
0.281046
0.416993
0.239216
0.261438
0.398693
0.490196
0.355556
0.334641
0.362092
0.36732
0.435294
0.427451
0.381699
0.503268
0.444444
0.427451
0.418301
0.332026
0.299346
0.183007
0.354248
0.430065
0.467974
0.397386
0.363399
0.363399
0.321569
0.346405
0.298039
0.245752
0.227451
0.210458
0.363399
0.335948
0.231373
0.207843
0.164706
0.271895
0.151634
0.373856
0.35817
0.299346
0.112418
0.177778
0.35817
0.31634
0.239216
0.295425
0.156863
0.173856
0.257516
0.354248
0.312418
0.159477
0.120261
0.388235
0.146405
0.303268
0.215686
0.145098
0.133333
0.184314
0.194771
0.143791
0.193464
0.185621
0.179085
0.180392
0.213072
0.132026
0.162092
0.383007
0.171242
0.171242
0.172549
0.368627
0.207843
0.261438
0.206536
0.188235
0.284967
0.146405
0.256209
0.203922
0.279739
0.155556
0.244444
0.176471
0.171242
0.192157
0.286275
0.243137
0.376471
0.175163
0.36732
0.44183
0.155556
0.410458
0.376471
0.362092
0.363399
0.366013
0.560784
0.222222
0.282353
0.433987
0.286275
0.388235
0.308497
0.30719
0.320261
0.32549
0.351634
0.343791
0.175163
0.413072
0.227451
0.300654
0.345098
0.415686
0.156863
0.308497
0.396078
0.291503
0.354248
0.313725
0.301961
0.305882
0.287582
0.505882
0.537255
0.352941
0.585621
0.377778
0.27451
0.555556
0.562092
0.559477
0.563399
0.360784
0.560784
0.552941
0.444444
0.554248
0.554248
0.556863
0.554248
0.556863
0.55817
0.556863
0.559477
0.560784
0.556863
0.556863
0.556863
0.55817
0.560784
0.556863
0.55817
0.563399
0.556863
0.346405
0.380392
0.329412
0.580392
0.569935
0.556863
0.303268
0.248366
0.475817
0.559477
0.562092
0.562092
0.266667
0.341176
0.346405
0.359477
0.373856
0.461438
0.376471
0.534641
0.411765
0.416993
0.413072
0.324183
0.355556
0.457516
0.422222
0.559477
0.346405
0.576471
0.573856
0.560784
0.575163
0.55817
0.560784
0.562092
0.566013
0.556863
0.562092
0.555556
0.556863
0.368627
0.562092
0.407843
0.440523
0.328105
0.494118
0.356863
0.559477
0.415686
0.560784
0.554248
0.560784
0.562092
0.562092
0.552941
0.560784
0.555556
0.555556
0.555556
0.555556
0.547712
0.55817
0.55817
0.554248
0.559477
0.556863
0.559477
0.551634
0.55817
0.556863
0.555556
0.555556
0.55817
0.556863
0.55817
0.55817
0.559477
0.559477
0.55817
0.556863
0.555556
0.554248
0.555556
0.554248
0.552941
0.552941
0.556863
0.552941
0.554248
0.551634
0.552941
0.552941
0.551634
0.552941
0.550327
0.552941
0.552941
0.552941
0.551634
0.550327
0.551634
0.550327
0.552941
0.551634
0.552941
0.552941
0.547712
0.551634
0.551634
0.551634
0.550327
0.552941
0.551634
0.551634
0.551634
0.551634
0.552941
0.552941
0.551634
0.551634
0.552941
0.552941
0.552941
0.554248
0.551634
0.554248
0.552941
0.552941
0.552941
0.552941
0.554248
0.555556
0.552941
0.55817
0.552941
0.552941
0.552941
0.55817
0.552941
0.559477
0.556863
0.555556
0.555556
0.551634
0.555556
0.552941
0.555556
0.552941
0.552941
0.554248
0.554248
0.551634
0.554248
0.552941
0.551634
0.552941
0.552941
0.552941
0.551634
0.552941
0.550327
0.550327
0.552941
0.551634
0.550327
0.554248
0.555556
0.552941
0.554248
0.555556
0.556863
0.555556
0.556863
0.54902
0.248366
0.554248
0.552941
0.543791
0.539869
0.538562
0.555556
0.554248
0.550327
0.546405
0.551634
0.54902
0.547712
0.541176
0.543791
0.54902
0.54902
0.545098
0.545098
0.547712
0.54902
0.546405
0.54902
0.550327
0.54902
0.552941
0.550327
0.551634
0.547712
0.541176
0.546405
0.545098
0.546405
0.546405
0.545098
0.545098
0.54902
0.545098
0.545098
0.543791
0.546405
0.541176
0.541176
0.542484
0.542484
0.539869
0.545098
0.537255
0.537255
0.530719
0.534641
0.537255
0.541176
0.535948
0.530719
0.533333
0.530719
0.534641
0.535948
0.541176
0.543791
0.538562
0.543791
0.539869
0.542484
0.543791
0.539869
0.546405
0.543791
0.54902
0.546405
0.546405
0.543791
0.541176
0.545098
0.551634
0.552941
0.547712
0.547712
0.551634
0.542484
0.552941
0.545098
0.54902
0.552941
0.550327
0.554248
0.550327
0.54902
0.547712
0.54902
0.545098
0.54902
0.54902
0.551634
0.546405
0.546405
0.547712
0.54902
0.542484
0.545098
0.542484
0.538562
0.545098
0.542484
0.542484
0.541176
0.547712
0.543791
0.545098
0.546405
0.546405
0.550327
0.546405
0.54902
0.545098
0.545098
0.550327
0.546405
0.545098
0.52549
0.541176
0.532026
0.546405
0.547712
0.542484
0.537255
0.541176
0.542484
0.539869
0.543791
0.538562
0.534641
0.539869
0.539869
0.542484
0.543791
0.538562
0.54902
0.532026
0.537255
0.541176
0.545098
0.543791
0.543791
0.542484
0.546405
0.545098
0.541176
0.546405
0.546405
0.508497
0.534641
0.533333
0.539869
0.538562
0.542484
0.534641
0.538562
0.533333
0.539869
0.532026
0.529412
0.534641
0.532026
0.529412
0.51634
0.534641
0.517647
0.521569
0.517647
0.517647
0.520261
0.495425
0.534641
0.526797
0.491503
0.501961
0.500654
0.504575
0.488889
0.500654
0.501961
0.503268
0.491503
0.498039
0.49281
0.491503
0.488889
0.500654
0.484967
0.500654
0.491503
0.475817
0.47451
0.484967
0.481046
0.47451
0.462745
0.461438
0.466667
0.467974
0.473203
0.469281
0.467974
0.462745
0.478431
0.461438
0.48366
0.467974
0.460131
0.457516
0.481046
0.470588
0.477124
0.47451
0.498039
0.482353
0.488889
0.48366
0.473203
0.475817
0.49281
0.478431
0.479739
0.498039
0.478431
0.488889
0.481046
0.482353
0.471895
0.475817
0.475817
0.471895
0.475817
0.475817
0.477124
0.475817
0.475817
0.477124
0.482353
0.495425
0.49281
0.488889
0.498039
0.494118
0.488889
0.496732
0.498039
0.496732
0.505882
0.54902
0.498039
0.504575
0.52549
0.532026
0.517647
0.524183
0.513725
0.513725
0.517647
0.533333
0.511111
0.521569
0.532026
0.541176
0.530719
0.539869
0.51634
0.529412
0.534641
0.538562
0.535948
0.535948
0.535948
0.538562
0.532026
0.529412
0.535948
0.534641
0.52549
0.537255
0.512418
0.321569
0.505882
0.51634
0.456209
0.305882
0.351634
0.407843
0.401307
0.397386
0.282353
0.440523
0.491503
0.530719
0.339869
0.48366
0.257516
0.308497
0.300654
0.478431
0.50719
0.372549
0.373856
0.351634
0.499346
0.240523
0.431373
0.503268
0.504575
0.504575
0.494118
0.494118
0.495425
0.496732
0.501961
0.496732
0.503268
0.413072
0.499346
0.486275
0.486275
0.481046
0.477124
0.488889
0.478431
0.479739
0.488889
0.499346
0.482353
0.488889
0.490196
0.500654
0.321569
0.491503
0.498039
0.188235
0.337255
0.355556
0.628758
0.597386
0.449673
0.230065
0.501961
0.52549
0.388235
0.585621
0.503268
0.436601
0.503268
0.240523
0.49281
0.49281
0.484967
0.491503
0.477124
0.481046
0.484967
0.482353
0.479739
0.482353
0.484967
0.484967
0.484967
0.343791
0.245752
0.543791
0.315033
0.179085
0.377778
0.656209
0.218301
0.569935
0.384314
0.498039
0.454902
0.397386
0.303268
0.460131
0.414379
0.379085
0.322876
0.328105
0.328105
0.392157
0.458824
0.414379
0.305882
0.186928
0.356863
0.354248
0.342484
0.594771
0.615686
0.36732
0.258824
0.350327
0.287582
0.414379
0.273203
0.354248
0.363399
0.445752
0.264052
0.27451
0.550327
0.236601
0.402614
0.373856
0.262745
0.337255
0.627451
0.398693
0.346405
0.30719
0.644444
0.318954
0.278431
0.239216
0.532026
0.256209
0.453595
0.337255
0.309804
0.559477
0.392157
0.312418
0.407843
0.437908
0.300654
0.216993
0.29281
0.355556
0.380392
0.295425
0.343791
0.522876
0.287582
0.275817
0.52549
0.393464
0.521569
0.419608
0.521569
0.332026
0.518954
0.52549
0.517647
0.522876
0.521569
0.517647
0.52549
0.533333
0.521569
0.532026
0.532026
0.538562
0.522876
0.532026
0.4
0.498039
0.569935
0.521569
0.538562
0.535948
0.534641
0.389542
0.541176
0.341176
0.546405
0.535948
0.535948
0.534641
0.542484
0.537255
0.535948
0.537255
0.530719
0.535948
0.537255
0.534641
0.543791
0.539869
0.545098
0.541176
0.556863
0.545098
0.542484
0.545098
0.554248
0.54902
0.545098
0.539869
0.551634
0.547712
0.542484
0.542484
0.546405
0.546405
0.551634
0.546405
0.541176
0.547712
0.555556
0.54902
0.547712
0.543791
0.546405
0.547712
0.546405
0.54902
0.539869
0.542484
0.545098
0.541176
0.220915
0.439216
0.440523
0.477124
0.545098
0.550327
0.545098
0.333333
0.551634
0.543791
0.552941
0.355556
0.552941
0.552941
0.551634
0.555556
0.551634
0.15817
0.550327
0.411765
0.542484
0.301961
0.396078
0.351634
0.55817
0.528105
0.214379
0.350327
0.35817
0.547712
0.684967
0.481046
0.464052
0.439216
0.457516
0.677124
0.68366
0.406536
0.215686
0.482353
0.550327
0.454902
0.552941
0.550327
0.376471
0.261438
0.562092
0.496732
0.535948
0.501961
0.542484
0.479739
0.50719
0.364706
0.615686
0.50719
0.261438
0.233987
0.431373
0.371242
0.466667
0.509804
0.568627
0.607843
0.366013
0.542484
0.543791
0.318954
0.55817
0.383007
0.481046
0.315033
0.444444
0.52549
0.288889
0.375163
0.488889
0.418301
0.35817
0.27451
0.334641
0.466667
0.281046
0.420915
0.517647
0.389542
0.511111
0.528105
0.311111
0.407843
0.583007
0.288889
0.448366
0.486275
0.398693
0.279739
0.273203
0.287582
0.620915
0.303268
0.304575
0.411765
0.486275
0.414379
0.273203
0.606536
0.368627
0.389542
0.299346
0.50719
0.312418
0.318954
0.524183
0.207843
0.414379
0.299346
0.491503
0.308497
0.512418
0.277124
0.294118
0.437908
0.243137
0.556863
0.518954
0.415686
0.34902
0.418301
0.317647
0.385621
0.295425
0.243137
0.291503
0.269281
0.282353
0.286275
0.394771
0.427451
0.273203
0.381699
0.350327
0.27451
0.284967
0.366013
0.396078
0.555556
0.427451
0.381699
0.430065
0.339869
0.457516
0.383007
0.226144
0.380392
0.30719
0.287582
0.585621
0.419608
0.261438
0.413072
0.65098
0.452288
0.414379
0.231373
0.373856
0.430065
0.568627
0.572549
0.487582
0.350327
0.282353
0.530719
0.305882
0.424837
0.488889
0.490196
0.482353
0.490196
0.481046
0.484967
0.479739
0.482353
0.495425
0.226144
0.484967
0.491503
0.486275
0.504575
0.491503
0.486275
0.220915
0.546405
0.471895
0.362092
0.462745
0.196078
0.413072
0.508497
0.496732
0.247059
0.239216
0.379085
0.346405
0.287582
0.192157
0.528105
0.418301
0.500654
0.48366
0.494118
0.478431
0.479739
0.495425
0.315033
0.30719
0.407843
0.482353
0.488889
0.477124
0.482353
0.496732
0.494118
0.499346
0.495425
0.499346
0.504575
0.498039
0.500654
0.50719
0.500654
0.521569
0.50719
0.509804
0.505882
0.529412
0.230065
0.488889
0.461438
0.381699
0.403922
0.290196
0.304575
0.228758
0.214379
0.371242
0.470588
0.30719
0.324183
0.435294
0.295425
0.368627
0.28366
0.313725
0.32549
0.334641
0.317647
0.317647
0.269281
0.309804
0.537255
0.308497
0.366013
0.343791
0.282353
0.467974
0.278431
0.435294
0.240523
0.460131
0.29281
0.317647
0.437908
0.266667
0.347712
0.322876
0.267974
0.52549
0.487582
0.240523
0.518954
0.278431
0.359477
0.318954
0.517647
0.373856
0.420915
0.275817
0.554248
0.414379
0.269281
0.50719
0.496732
0.513725
0.50719
0.50719
0.50719
0.505882
0.500654
0.500654
0.496732
0.496732
0.496732
0.491503
0.491503
0.481046
0.491503
0.500654
0.494118
0.478431
0.48366
0.503268
0.503268
0.505882
0.512418
0.511111
0.512418
0.511111
0.517647
0.51634
0.515033
0.52549
0.51634
0.495425
0.484967
0.50719
0.499346
0.495425
0.494118
0.494118
0.48366
0.481046
0.487582
0.481046
0.478431
0.478431
0.482353
0.481046
0.478431
0.495425
0.482353
0.484967
0.478431
0.498039
0.482353
0.50719
0.49281
0.50719
0.508497
0.499346
0.501961
0.524183
0.511111
0.512418
0.505882
0.515033
0.48366
0.520261
0.515033
0.517647
0.52549
0.518954
0.470588
0.501961
0.515033
0.513725
0.51634
0.52549
0.388235
0.30719
0.256209
0.362092
0.55817
0.467974
0.443137
0.526797
0.478431
0.535948
0.526797
0.52549
0.524183
0.526797
0.52549
0.533333
0.528105
0.534641
0.532026
0.522876
0.51634
0.532026
0.528105
0.520261
0.498039
0.501961
0.550327
0.500654
0.555556
0.488889
0.333333
0.324183
0.462745
0.534641
0.554248
0.28366
0.258824
0.185621
0.202614
0.535948
0.43268
0.275817
0.528105
0.529412
0.447059
0.25098
0.533333
0.584314
0.288889
0.335948
0.436601
0.32549
0.321569
0.36732
0.437908
0.354248
0.471895
0.29281
0.477124
0.333333
0.491503
0.44183
0.411765
0.515033
0.542484
0.521569
0.568627
0.402614
0.51634
0.54902
0.486275
0.345098
0.503268
0.422222
0.503268
0.436601
0.484967
0.295425
0.467974
0.29281
0.518954
0.304575
0.586928
0.554248
0.458824
0.347712
0.402614
0.535948
0.36732
0.381699
0.402614
0.406536
0.362092
0.467974
0.511111
0.413072
0.32549
0.439216
0.48366
0.550327
0.291503
0.414379
0.369935
0.36732
0.560784
0.230065
0.389542
0.589542
0.376471
0.396078
0.206536
0.35817
0.162092
0.363399
0.35817
0.356863
0.218301
0.559477
0.281046
0.500654
0.551634
0.426144
0.526797
0.275817
0.444444
0.495425
0.539869
0.532026
0.538562
0.271895
0.537255
0.50719
0.253595
0.528105
0.39085
0.133333
0.526797
0.550327
0.393464
0.551634
0.530719
0.522876
0.543791
0.515033
0.352941
0.467974
0.54902
0.552941
0.486275
0.49281
0.551634
0.551634
0.530719
0.524183
0.52549
0.50719
0.554248
0.546405
0.464052
0.54902
0.508497
0.342484
0.511111
0.539869
0.545098
0.547712
0.509804
0.547712
0.537255
0.504575
0.550327
0.529412
0.534641
0.517647
0.546405
0.546405
0.538562
0.51634
0.54902
0.55817
0.541176
0.554248
0.551634
0.562092
0.554248
0.541176
0.547712
0.552941
0.533333
0.552941
0.545098
0.532026
0.54902
0.51634
0.528105
0.532026
0.546405
0.552941
0.554248
0.552941
0.554248
0.552941
0.555556
0.552941
0.55817
0.545098
0.55817
0.55817
0.555556
0.542484
0.552941
0.555556
0.173856
0.555556
0.556863
0.552941
0.556863
0.552941
0.554248
0.552941
0.552941
0.552941
0.552941
0.552941
0.552941
0.552941
0.552941
0.552941
0.552941
0.552941
0.473203
0.552941
0.552941
0.552941
0.552941
0.551634
0.550327
0.552941
0.552941
0.552941
0.552941
0.552941
0.552941
0.555556
0.552941
0.554248
0.551634
0.552941
0.552941
0.54902
0.552941
0.552941
0.552941
0.511111
0.554248
0.479739
0.381699
0.431373
0.428758
0.394771
0.554248
0.511111
0.423529
0.180392
0.555556
0.449673
0.564706
0.436601
0.552941
0.556863
0.545098
0.556863
0.186928
0.35817
0.490196
0.475817
0.180392
0.266667
0.577778
0.300654