# vtk DataFile Version 1.0
Unstructured Grid Example
ASCII

DATASET UNSTRUCTURED_GRID
POINTS 1670 float
272 21 0
257 104 0
322 378 0
447 339 0
468 279 0
329 123 0
109 56 0
190 8 0
274 140 0
258 286 0
152 115 0
212 483 0
107 513 0
266 445 0
262 323 0
280 296 0
389 346 0
372 424 0
400 377 0
474 264 0
463 242 0
390 227 0
318 239 0
304 43 0
440 13 0
484 50 0
196 82 0
179 57 0
93 83 0
0 8 0
216 1 0
248 43 0
299 73 0
281 79 0
227 86 0
269 87 0
317 123 0
322 153 0
318 177 0
308 226 0
262 163 0
161 109 0
0 101 0
123 108 0
0 140 0
217 381 0
250 306 0
253 393 0
251 425 0
236 419 0
142 503 0
79 513 0
253 513 0
200 474 0
221 451 0
285 413 0
293 513 0
305 449 0
316 405 0
322 399 0
269 288 0
258 378 0
268 262 0
276 259 0
303 262 0
341 438 0
348 267 0
329 306 0
334 385 0
327 483 0
338 513 0
354 507 0
340 471 0
338 457 0
358 280 0
398 348 0
436 479 0
410 366 0
504 282 0
454 250 0
431 265 0
447 239 0
458 236 0
489 236 0
488 185 0
512 161 0
417 107 0
451 203 0
398 230 0
368 231 0
347 172 0
344 151 0
361 138 0
365 166 0
344 102 0
329 85 0
341 16 0
348 85 0
407 30 0
428 9 0
426 37 0
512 70 0
452 34 0
496 10 0
54 1 0
129 1 0
85 1 0
78 2 0
71 8 0
47 24 0
93 56 0
102 31 0
95 29 0
142 47 0
174 50 0
191 61 0
197 58 0
199 48 0
174 37 0
148 25 0
165 10 0
166 3 0
184 5 0
233 14 0
229 27 0
240 42 0
254 15 0
247 10 0
276 14 0
287 12 0
289 34 0
285 19 0
278 23 0
283 48 0
286 42 0
289 57 0
269 54 0
259 51 0
250 51 0
243 51 0
231 46 0
237 49 0
228 59 0
235 64 0
214 69 0
243 92 0
240 68 0
257 67 0
281 67 0
270 103 0
260 79 0
247 97 0
255 114 0
263 109 0
293 144 0
263 118 0
255 121 0
254 129 0
242 127 0
225 118 0
237 122 0
230 145 0
179 144 0
169 129 0
187 119 0
194 89 0
198 99 0
208 81 0
204 64 0
200 76 0
188 82 0
203 86 0
152 79 0
132 77 0
74 70 0
49 70 0
0 77 0
109 80 0
137 93 0
169 95 0
163 119 0
110 103 0
126 269 0
0 195 0
199 270 0
186 161 0
216 150 0
224 222 0
234 299 0
231 309 0
223 327 0
207 389 0
225 352 0
224 396 0
218 404 0
149 443 0
90 471 0
126 468 0
35 332 0
0 363 0
23 455 0
12 485 0
65 485 0
65 500 0
53 492 0
8 500 0
14 507 0
0 512 0
34 513 0
41 513 0
54 502 0
119 506 0
176 513 0
209 513 0
196 501 0
207 497 0
123 493 0
75 493 0
78 481 0
92 489 0
150 490 0
239 408 0
257 405 0
259 423 0
255 418 0
238 426 0
240 492 0
249 485 0
246 442 0
256 429 0
276 413 0
261 513 0
282 500 0
292 482 0
286 431 0
286 402 0
264 399 0
279 399 0
285 394 0
288 387 0
278 344 0
276 331 0
255 327 0
253 344 0
263 370 0
238 373 0
236 343 0
235 323 0
243 339 0
252 297 0
267 274 0
234 260 0
243 242 0
243 218 0
254 176 0
275 270 0
272 296 0
279 242 0
291 220 0
287 147 0
318 298 0
315 272 0
339 255 0
339 300 0
340 245 0
389 240 0
403 300 0
395 284 0
370 287 0
344 330 0
378 333 0
380 377 0
371 369 0
351 373 0
333 356 0
341 349 0
321 355 0
311 378 0
293 392 0
321 392 0
328 395 0
316 424 0
308 415 0
300 431 0
300 454 0
295 462 0
311 513 0
315 503 0
328 471 0
343 429 0
330 449 0
374 513 0
381 513 0
365 484 0
402 429 0
343 421 0
335 401 0
360 393 0
366 410 0
428 349 0
439 322 0
426 320 0
431 370 0
410 505 0
429 513 0
458 510 0
454 483 0
450 469 0
459 501 0
471 513 0
504 506 0
478 504 0
478 493 0
495 479 0
472 479 0
473 323 0
477 433 0
512 325 0
453 288 0
492 271 0
432 275 0
445 285 0
436 288 0
415 309 0
403 312 0
408 306 0
411 276 0
432 282 0
416 264 0
404 246 0
403 237 0
436 244 0
440 237 0
458 257 0
446 265 0
461 250 0
512 246 0
480 238 0
502 226 0
419 236 0
425 230 0
455 216 0
512 207 0
493 105 0
452 150 0
452 189 0
467 201 0
367 118 0
374 113 0
357 122 0
355 153 0
352 191 0
370 194 0
408 212 0
399 214 0
360 215 0
357 226 0
344 210 0
337 191 0
328 180 0
332 186 0
331 225 0
317 220 0
299 230 0
320 195 0
322 160 0
327 216 0
307 145 0
300 136 0
308 133 0
327 117 0
335 111 0
339 144 0
337 159 0
344 129 0
346 119 0
351 106 0
384 93 0
378 62 0
359 61 0
364 67 0
360 100 0
343 90 0
323 82 0
304 58 0
347 72 0
353 81 0
337 27 0
317 46 0
303 9 0
316 15 0
329 9 0
342 9 0
361 51 0
401 43 0
392 16 0
396 1 0
414 10 0
435 7 0
464 25 0
436 51 0
430 26 0
415 90 0
433 98 0
464 75 0
439 64 0
463 62 0
471 48 0
491 53 0
493 85 0
500 74 0
491 44 0
512 36 0
484 42 0
479 21 0
502 28 0
512 28 0
40 1 0
3 1 0
17 1 0
28 1 0
66 1 0
107 1 0
108 9 0
96 5 0
85 8 0
97 14 0
104 15 0
94 22 0
90 16 0
84 21 0
76 15 0
61 14 0
16 13 0
28 21 0
0 23 0
66 25 0
76 24 0
72 35 0
17 35 0
0 35 0
0 56 0
31 57 0
63 51 0
78 47 0
56 37 0
88 49 0
82 60 0
99 49 0
107 49 0
89 41 0
109 40 0
101 41 0
88 32 0
95 36 0
104 24 0
114 31 0
136 28 0
126 31 0
120 41 0
115 49 0
121 60 0
131 57 0
123 50 0
132 44 0
155 41 0
152 52 0
161 53 0
186 47 0
181 40 0
167 40 0
146 35 0
162 32 0
172 28 0
180 31 0
188 25 0
187 17 0
178 12 0
170 18 0
181 24 0
162 18 0
114 20 0
125 16 0
138 14 0
153 14 0
146 10 0
116 12 0
120 1 0
131 9 0
141 3 0
152 3 0
158 7 0
173 7 0
177 1 0
189 1 0
206 8 0
199 1 0
207 1 0
197 10 0
194 16 0
196 24 0
203 23 0
210 22 0
202 15 0
213 11 0
219 15 0
236 25 0
222 24 0
228 19 0
239 7 0
226 11 0
223 3 0
233 1 0
242 1 0
259 2 0
250 3 0
267 15 0
260 9 0
268 2 0
276 1 0
292 2 0
293 9 0
282 4 0
274 8 0
264 21 0
294 18 0
289 24 0
268 27 0
262 29 0
249 29 0
256 26 0
242 17 0
248 22 0
242 28 0
262 40 0
246 37 0
253 37 0
268 37 0
280 29 0
293 29 0
292 40 0
283 36 0
275 34 0
279 42 0
297 44 0
290 50 0
283 59 0
276 53 0
275 60 0
273 46 0
256 44 0
265 48 0
248 58 0
241 60 0
220 59 0
216 53 0
225 52 0
232 53 0
231 35 0
238 33 0
224 34 0
217 41 0
224 45 0
207 37 0
214 31 0
206 29 0
192 31 0
199 35 0
189 39 0
196 42 0
208 46 0
203 54 0
191 53 0
236 74 0
223 66 0
229 71 0
231 81 0
222 82 0
227 93 0
236 94 0
234 87 0
239 83 0
243 75 0
247 86 0
252 93 0
256 84 0
252 79 0
256 74 0
250 72 0
248 66 0
253 62 0
259 60 0
267 61 0
263 71 0
268 80 0
270 74 0
270 67 0
287 65 0
293 63 0
293 71 0
284 73 0
277 73 0
276 83 0
293 81 0
295 87 0
288 91 0
286 85 0
272 96 0
275 90 0
262 87 0
266 93 0
259 95 0
280 116 0
277 104 0
270 110 0
283 96 0
288 102 0
292 96 0
293 109 0
290 118 0
283 110 0
297 128 0
297 121 0
293 135 0
290 129 0
285 133 0
277 134 0
281 124 0
269 121 0
270 128 0
268 137 0
254 140 0
248 135 0
249 125 0
261 134 0
261 125 0
251 106 0
263 101 0
243 102 0
246 111 0
246 118 0
240 114 0
235 108 0
223 99 0
232 102 0
223 109 0
225 128 0
231 115 0
241 135 0
233 128 0
233 136 0
216 115 0
220 136 0
218 125 0
208 129 0
200 140 0
189 131 0
177 118 0
201 121 0
208 116 0
187 111 0
170 111 0
169 102 0
179 110 0
190 102 0
203 104 0
197 112 0
212 108 0
217 103 0
210 101 0
216 91 0
205 94 0
192 76 0
210 88 0
215 79 0
220 75 0
212 61 0
196 66 0
190 69 0
209 74 0
183 75 0
185 64 0
178 69 0
173 76 0
177 84 0
175 91 0
184 90 0
190 95 0
182 101 0
175 98 0
140 83 0
127 84 0
158 73 0
166 73 0
167 82 0
169 63 0
160 62 0
149 62 0
138 63 0
145 71 0
116 65 0
126 65 0
103 60 0
108 65 0
94 68 0
102 70 0
121 70 0
118 80 0
114 72 0
85 73 0
20 85 0
57 94 0
82 93 0
113 92 0
103 88 0
154 87 0
164 90 0
156 98 0
146 91 0
128 97 0
140 113 0
144 102 0
144 127 0
128 123 0
112 129 0
98 114 0
95 98 0
79 109 0
40 116 0
16 120 0
0 166 0
50 148 0
85 155 0
30 188 0
0 262 0
0 312 0
51 257 0
0 227 0
85 220 0
138 196 0
158 304 0
164 249 0
163 214 0
186 192 0
161 171 0
126 167 0
123 146 0
146 145 0
163 142 0
203 153 0
190 232 0
215 244 0
208 205 0
212 181 0
236 159 0
240 143 0
238 186 0
217 165 0
217 264 0
226 290 0
235 274 0
241 309 0
241 317 0
227 318 0
217 310 0
215 280 0
193 291 0
213 297 0
202 311 0
215 361 0
213 322 0
214 333 0
216 350 0
232 332 0
239 329 0
240 352 0
233 360 0
224 338 0
236 382 0
237 366 0
239 393 0
232 399 0
229 388 0
227 410 0
227 375 0
225 366 0
214 371 0
223 422 0
213 415 0
178 416 0
181 391 0
194 415 0
207 404 0
200 365 0
204 342 0
190 322 0
184 346 0
195 378 0
177 371 0
166 338 0
104 324 0
158 359 0
139 379 0
0 397 0
64 388 0
158 402 0
134 409 0
105 410 0
0 427 0
0 479 0
0 455 0
41 425 0
80 438 0
126 436 0
107 458 0
67 467 0
44 468 0
108 479 0
137 489 0
113 495 0
106 503 0
97 499 0
29 495 0
41 493 0
26 479 0
0 494 0
18 498 0
0 504 0
34 504 0
57 510 0
42 504 0
26 505 0
9 513 0
20 513 0
27 513 0
51 513 0
63 513 0
72 513 0
90 513 0
100 513 0
116 513 0
123 513 0
135 513 0
95 508 0
73 503 0
86 503 0
133 505 0
182 504 0
170 498 0
157 503 0
174 506 0
149 507 0
145 513 0
156 513 0
169 513 0
164 508 0
198 513 0
190 513 0
223 513 0
231 513 0
238 513 0
216 513 0
183 513 0
203 508 0
214 504 0
233 505 0
228 486 0
228 470 0
185 470 0
191 491 0
224 497 0
178 489 0
161 490 0
146 467 0
161 477 0
164 461 0
209 459 0
193 449 0
170 437 0
196 431 0
210 443 0
211 428 0
225 434 0
234 456 0
231 446 0
240 436 0
245 375 0
243 386 0
243 362 0
247 368 0
257 364 0
270 365 0
268 377 0
252 373 0
250 381 0
260 393 0
265 386 0
265 410 0
265 419 0
258 412 0
252 400 0
256 386 0
245 400 0
251 410 0
247 419 0
247 430 0
255 437 0
256 462 0
252 446 0
247 455 0
242 505 0
245 513 0
256 504 0
257 493 0
246 472 0
264 481 0
264 500 0
269 513 0
267 469 0
268 453 0
261 440 0
259 448 0
261 433 0
268 430 0
270 439 0
280 439 0
276 423 0
276 430 0
277 449 0
272 492 0
273 503 0
277 513 0
277 481 0
278 458 0
285 454 0
284 513 0
289 506 0
298 493 0
286 468 0
295 449 0
286 444 0
290 437 0
293 429 0
297 439 0
296 417 0
296 410 0
296 398 0
290 407 0
287 422 0
281 418 0
272 418 0
272 403 0
272 396 0
278 406 0
285 380 0
276 387 0
272 354 0
276 372 0
282 363 0
287 354 0
290 367 0
298 387 0
293 382 0
298 375 0
287 321 0
297 349 0
295 333 0
295 309 0
297 298 0
294 272 0
293 282 0
287 289 0
288 300 0
280 284 0
285 277 0
275 279 0
276 290 0
278 304 0
275 311 0
285 311 0
286 336 0
278 319 0
271 340 0
270 322 0
268 314 0
264 331 0
262 341 0
263 350 0
256 335 0
253 352 0
247 332 0
248 325 0
253 318 0
248 313 0
245 300 0
244 285 0
250 270 0
258 278 0
259 301 0
260 313 0
267 307 0
264 296 0
265 281 0
272 223 0
272 190 0
268 178 0
269 205 0
269 244 0
261 267 0
251 259 0
255 192 0
258 235 0
264 253 0
267 154 0
248 163 0
249 147 0
256 153 0
266 145 0
274 149 0
274 166 0
280 174 0
276 157 0
281 142 0
285 157 0
288 140 0
286 166 0
286 197 0
282 185 0
283 209 0
281 265 0
288 265 0
288 258 0
283 252 0
289 238 0
295 258 0
296 265 0
295 248 0
298 199 0
296 174 0
292 181 0
288 174 0
292 154 0
296 164 0
306 246 0
308 216 0
[...]
CELL_DATA 3193
COLOR_SCALARS ColorSpace 1
0.402614
0.339869
0.445752
0.19085
0.321569
0.534641
0.291503
0.193464
0.372549
0.300654
0.39085
0.278431
0.579085
0.2
0.48366
0.569935
0.291503
0.396078
0.267974
0.555556
0.471895
0.256209
0.505882
0.481046
0.40915
0.488889
0.311111
0.321569
0.40915
0.315033
0.488889
0.490196
0.513725
0.580392
0.423529
0.271895
0.308497
0.552941
0.269281
0.410458
0.495425
0.160784
0.173856
0.155556
0.206536
0.539869
0.308497
0.192157
0.19085
0.334641
0.258824
0.258824
0.550327
0.201307
0.197386
0.197386
0.162092
0.203922
0.312418
0.198693
0.193464
0.215686
0.181699
0.213072
0.185621
0.171242
0.318954
0.198693
0.189542
0.555556
0.308497
0.427451
0.23268
0.559477
0.205229
0.534641
0.216993
0.51634
0.288889
0.528105
0.520261
0.513725
0.335948
0.559477
0.454902
0.223529
0.345098
0.343791
0.188235
0.351634
0.622222
0.473203
0.478431
0.543791
0.48366
0.469281
0.486275
0.481046
0.28366
0.469281
0.482353
0.402614
0.237908
0.517647
0.223529
0.264052
0.256209
0.649673
0.269281
0.352941
0.296732
0.546405
0.206536
0.461438
0.313725
0.47451
0.373856
0.501961
0.504575
0.24183
0.444444
0.466667
0.424837
0.503268
0.27451
0.487582
0.512418
0.496732
0.479739
0.487582
0.495425
0.488889
0.437908
0.51634
0.343791
0.337255
0.305882
0.494118
0.532026
0.500654
0.513725
0.487582
0.448366
0.339869
0.385621
0.197386
0.517647
0.332026
0.312418
0.405229
0.300654
0.538562
0.253595
0.449673
0.530719
0.521569
0.403922
0.552941
0.563399
0.524183
0.359477
0.505882
0.384314
0.420915
0.256209
0.422222
0.196078
0.560784
0.254902
0.177778
0.166013
0.222222
0.530719
0.194771
0.228758
0.188235
0.265359
0.461438
0.183007
0.350327
0.30719
0.267974
0.247059
0.389542
0.315033
0.535948
0.228758
0.454902
0.403922
0.197386
0.240523
0.233987
0.413072
0.290196
0.305882
0.300654
0.30719
0.270588
0.262745
0.284967
0.416993
0.337255
0.339869
0.338562
0.34902
0.334641
0.380392
0.35817
0.338562
0.206536
0.282353
0.248366
0.185621
0.16732
0.247059
0.295425
0.261438
0.397386
0.481046
0.303268
0.313725
0.240523
0.126797
0.337255
0.249673
0.120261
0.179085
0.356863
0.152941
0.192157
0.164706
0.189542
0.16732
0.183007
0.173856
0.230065
0.24183
0.129412
0.231373
0.210458
0.313725
0.193464
0.210458
0.185621
0.203922
0.169935
0.197386
0.20915
0.175163
0.201307
0.220915
0.231373
0.192157
0.211765
0.166013
0.213072
0.188235
0.172549
0.183007
0.176471
0.176471
0.175163
0.247059
0.203922
0.237908
0.183007
0.202614
0.253595
0.261438
0.197386
0.193464
0.171242
0.220915
0.218301
0.192157
0.177778
0.205229
0.186928
0.183007
0.362092
0.171242
0.215686
0.342484
0.265359
0.299346
0.253595
0.324183
0.264052
0.201307
0.28366
0.29281
0.266667
0.300654
0.224837
0.249673
0.244444
0.330719
0.260131
0.311111
0.210458
0.28366
0.537255
0.559477
0.556863
0.559477
0.566013
0.379085
0.431373
0.56732
0.377778
0.240523
0.359477
0.196078
0.267974
0.194771
0.236601
0.248366
0.227451
0.248366
0.166013
0.371242
0.201307
0.402614
0.435294
0.296732
0.458824
0.550327
0.449673
0.30719
0.445752
0.267974
0.368627
0.168627
0.267974
0.414379
0.545098
0.193464
0.513725
0.50719
0.564706
0.529412
0.556863
0.529412
0.560784
0.533333
0.560784
0.40915
0.532026
0.537255
0.554248
0.559477
0.54902
0.393464
0.333333
0.524183
0.30719
0.528105
0.321569
0.51634
0.503268
0.478431
0.49281
0.457516
0.51634
0.431373
0.496732
0.503268
0.496732
0.501961
0.486275
0.484967
0.473203
0.470588
0.477124
0.491503
0.470588
0.470588
0.48366
0.47451
0.47451
0.470588
0.470588
0.461438
0.466667
0.498039
0.456209
0.457516
0.466667
0.454902
0.466667
0.469281
0.475817
0.477124
0.475817
0.481046
0.477124
0.479739
0.477124
0.478431
0.479739
0.47451
0.475817
0.466667
0.478431
0.47451
0.478431
0.467974
0.477124
0.481046
0.380392
0.364706
0.4
0.295425
0.25098
0.405229
0.440523
0.218301
0.275817
0.410458
0.479739
0.477124
0.482353
0.481046
0.303268
0.368627
0.19085
0.25098
0.354248
0.324183
0.478431
0.482353
0.447059
0.486275
0.479739
0.555556
0.330719
0.203922
0.188235
0.271895
0.498039
0.202614
0.373856
0.397386
0.341176
0.564706
0.194771
0.381699
0.20915
0.337255
0.311111
0.228758
0.427451
0.422222
0.437908
0.305882
0.334641
0.406536
0.295425
0.342484
0.25098
0.279739
0.490196
0.240523
0.237908
0.282353
0.529412
0.30719
0.445752
0.538562
0.403922
0.545098
0.543791
0.551634
0.266667
0.556863
0.488889
0.346405
0.330719
0.528105
0.312418
0.413072
0.54902
0.552941
0.39085
0.275817
0.328105
0.355556
0.25098
0.477124
0.444444
0.383007
0.509804
0.456209
0.439216
0.329412
0.54902
0.552941
0.230065
0.296732
0.533333
0.329412
0.248366
0.328105
0.369935
0.526797
0.518954
0.298039
0.301961
0.509804
0.51634
0.428758
0.291503
0.586928
0.350327
0.517647
0.262745
0.296732
0.607843
0.389542
0.254902
0.309804
0.431373
0.372549
0.436601
0.579085
0.482353
0.513725
0.439216
0.275817
0.213072
0.598693
0.203922
0.108497
0.220915
0.19085
0.487582
0.491503
0.401307
0.482353
0.479739
0.479739
0.491503
0.486275
0.376471
0.498039
0.49281
0.287582
0.486275
0.482353
0.49281
0.490196
0.503268
0.278431
0.499346
0.202614
0.311111
0.517647
0.19085
0.498039
0.220915
0.515033
0.518954
0.252288
0.522876
0.439216
0.521569
0.478431
0.511111
0.481046
0.478431
0.490196
0.482353
0.48366
0.478431
0.52549
0.487582
0.481046
0.490196
0.479739
0.479739
0.478431
0.484967
0.48366
0.48366
0.490196
0.495425
0.486275
0.522876
0.505882
0.496732
0.526797
0.465359
0.194771
0.532026
0.407843
0.222222
0.211765
0.375163
0.308497
0.418301
0.267974
0.258824
0.28366
0.239216
0.281046
0.303268
0.345098
0.231373
0.470588
0.188235
0.447059
0.45098
0.351634
0.350327
0.444444
0.341176
0.452288
0.304575
0.377778
0.415686
0.333333
0.453595
0.23268
0.328105
0.215686
0.414379
0.443137
0.51634
0.401307
0.296732
0.538562
0.467974
0.343791
0.401307
0.364706
0.520261
0.552941
0.424837
0.545098
0.541176
0.394771
0.524183
0.369935
0.551634
0.547712
0.551634
0.539869
0.460131
0.473203
0.188235
0.23268
0.25098
0.24183
0.179085
0.206536
0.373856
0.449673
0.305882
0.443137
0.27451
0.431373
0.401307
0.445752
0.54902
0.286275
0.579085
0.407843
0.433987
0.427451
0.458824
0.181699
0.384314
0.360784
0.445752
0.479739
0.337255
0.320261
0.508497
0.25098
0.551634
0.550327
0.44183
0.550327
0.356863
0.513725
0.414379
0.447059
0.233987
0.371242
0.150327
0.273203
0.194771
0.177778
0.185621
0.201307
0.181699
0.175163
0.192157
0.243137
0.288889
0.243137
0.2
0.230065
0.183007
0.177778
0.185621
0.215686
0.342484
0.30719
0.296732
0.28366
0.177778
0.286275
0.244444
0.304575
0.164706
0.286275
0.206536
0.282353
0.198693
0.151634
0.206536
0.223529
0.231373
0.237908
0.286275
0.168627
0.244444
0.313725
0.282353
0.237908
0.245752
0.257516
0.236601
0.256209
0.284967
0.207843
0.150327
0.313725
0.243137
0.291503
0.287582
0.418301
0.264052
0.369935
0.231373
0.317647
0.31634
0.273203
0.20915
0.296732
0.265359
0.407843
0.277124
0.222222
0.239216
0.309804
0.318954
0.426144
0.486275
0.25098
0.495425
0.371242
0.296732
0.371242
0.315033
0.275817
0.271895
0.27451
0.249673
0.271895
0.379085
0.284967
0.308497
0.368627
0.284967
0.27451
0.362092
0.299346
0.258824
0.236601
0.257516
0.233987
0.252288
0.252288
0.248366
0.277124
0.366013
0.244444
0.360784
0.313725
0.29281
0.324183
0.291503
0.270588
0.235294
0.257516
0.203922
0.264052
0.254902
0.304575
0.151634
0.295425
0.260131
0.291503
0.28366
0.284967
0.252288
0.248366
0.304575
0.270588
0.290196
0.270588
0.299346
0.278431
0.28366
0.405229
0.291503
0.342484
0.260131
0.258824
0.256209
0.264052
0.373856
0.269281
0.252288
0.321569
0.34902
0.320261
0.253595
0.30719
0.277124
0.36732
0.151634
0.347712
0.366013
0.311111
0.239216
0.264052
0.216993
0.345098
0.2
0.245752
0.36732
0.253595
0.295425
0.211765
0.160784
0.288889
0.254902
0.193464
0.341176
0.324183
0.465359
0.392157
0.386928
0.398693
0.424837
0.334641
0.509804
0.281046
0.410458
0.34902
0.436601
0.394771
0.339869
0.380392
0.428758
0.496732
0.481046
0.328105
0.383007
0.439216
0.356863
0.376471
0.313725
0.321569
0.247059
0.341176
0.335948
0.330719
0.339869
0.377778
0.405229
0.277124
0.4
0.269281
0.202614
0.330719
0.363399
0.281046
0.341176
0.380392
0.219608
0.189542
0.24183
0.196078
0.265359
0.243137
0.288889
0.402614
0.273203
0.341176
0.30719
0.39085
0.392157
0.335948
0.355556
0.334641
0.359477
0.416993
0.236601
0.352941
0.354248
0.345098
0.317647
0.350327
0.34902
0.329412
0.312418
0.291503
0.305882
0.24183
0.228758
0.226144
0.264052
0.244444
0.171242
0.14902
0.155556
0.113725
0.193464
0.294118
0.312418
0.326797
0.295425
0.247059
0.216993
0.244444
0.203922
0.194771
0.162092
0.239216
0.118954
0.11634
0.112418
0.142484
0.210458
0.166013
0.194771
0.181699
0.162092
0.141176
0.196078
0.129412
0.146405
0.12549
0.132026
0.132026
0.198693
0.159477
0.156863
0.223529
0.215686
0.181699
0.2
0.213072
0.20915
0.184314
0.185621
0.198693
0.224837
0.235294
0.284967
0.324183
0.202614
0.201307
0.168627
0.160784
0.181699
0.2
0.25098
0.252288
0.181699
0.243137
0.16732
0.189542
0.196078
0.176471
0.206536
0.203922
0.19085
0.177778
0.223529
0.192157
0.181699
0.222222
0.210458
0.189542
0.181699
0.179085
0.185621
0.186928
0.176471
0.175163
0.172549
0.198693
0.197386
0.177778
0.305882
0.249673
0.224837
0.237908
0.179085
0.183007
0.172549
0.179085
0.189542
0.183007
0.19085
0.262745
0.15817
0.173856
0.175163
0.179085
0.223529
0.183007
0.186928
0.183007
0.205229
0.202614
0.189542
0.185621
0.179085
0.194771
0.202614
0.183007
0.197386
0.2
0.210458
0.215686
0.267974
0.164706
0.248366
0.183007
0.176471
0.164706
0.227451
0.214379
0.213072
0.223529
0.186928
0.181699
0.313725
0.237908
0.16732
0.180392
0.311111
0.210458
0.240523
0.211765
0.227451
0.224837
0.27451
0.247059
0.25098
0.20915
0.253595
0.198693
0.253595
0.2
0.210458
0.254902
0.188235
0.254902
0.243137
0.235294
0.173856
0.233987
0.233987
0.237908
0.196078
0.271895
0.239216
0.248366
0.19085
0.214379
0.266667
0.299346
0.253595
0.346405
0.181699
0.363399
0.183007
0.341176
0.171242
0.184314
0.168627
0.281046
0.386928
0.193464
0.233987
0.183007
0.166013
0.175163
0.196078
0.168627
0.179085
0.183007
0.183007
0.218301
0.198693
0.220915
0.194771
0.220915
0.181699
0.215686
0.181699
0.171242
0.2
0.186928
0.198693
0.192157
0.171242
0.162092
0.198693
0.172549
0.181699
0.213072
0.196078
0.201307
0.184314
0.188235
0.183007
0.180392
0.173856
0.171242
0.179085
0.19085
0.202614
0.198693
0.173856
0.185621
0.19085
0.180392
0.185621
0.160784
0.164706
0.201307
0.172549
0.203922
0.19085
0.220915
0.205229
0.304575
0.20915
0.305882
0.202614
0.196078
0.176471
0.278431
0.168627
0.164706
0.176471
0.171242
0.227451
0.2
0.183007
0.197386
0.322876
0.186928
0.179085
0.181699
0.237908
0.275817
0.205229
0.239216
0.312418
0.215686
0.20915
0.291503
0.396078
0.265359
0.284967
0.360784
0.194771
0.355556
0.311111
0.261438
0.245752
0.286275
0.337255
0.32549
0.47451
0.261438
0.368627
0.257516
0.262745
0.248366
0.308497
0.269281
0.299346
0.219608
0.360784
0.244444
0.256209
0.254902
0.311111
0.362092
0.245752
0.220915
0.248366
0.305882
0.386928
0.222222
0.273203
0.213072
0.267974
0.184314
0.375163
0.2
0.342484
0.286275
0.281046
0.563399
0.352941
0.324183
0.384314
0.267974
0.299346
0.193464
0.402614
0.508497
0.339869
0.28366
0.375163
0.559477
0.384314
0.435294
0.517647
0.562092
0.563399
0.559477
0.563399
0.559477
0.424837
0.245752
0.477124
0.559477
0.427451
0.350327
0.363399
0.454902
0.495425
0.214379
0.294118
0.262745
0.320261
0.254902
0.237908
0.402614
0.482353
0.368627
0.568627
0.335948
0.315033
0.335948
0.4
0.282353
0.381699
0.362092
0.239216
0.369935
0.436601
0.380392
0.271895
0.240523
0.269281
0.330719
0.247059
0.219608
0.261438
0.226144
0.226144
0.213072
0.249673
0.222222
0.213072
0.23268
0.226144
0.211765
0.339869
0.28366
0.315033
0.233987
0.245752
0.318954
0.332026
0.231373
0.230065
0.311111
0.223529
0.180392
0.305882
0.282353
0.295425
0.194771
0.166013
0.180392
0.152941
0.143791
0.423529
0.411765
0.469281
0.247059
0.256209
0.186928
0.236601
0.298039
0.220915
0.281046
0.388235
0.257516
0.284967
0.262745
0.50719
0.332026
0.517647
0.388235
0.411765
0.499346
0.202614
0.270588
0.32549
0.343791
0.19085
0.411765
0.39085
0.164706
0.466667
0.352941
0.288889
0.181699
0.284967
0.239216
0.35817
0.270588
0.261438
0.322876
0.490196
0.383007
0.40915
0.437908
0.470588
0.528105
0.52549
0.551634
0.457516
0.346405
0.518954
0.535948
0.294118
0.180392
0.24183
0.211765
0.286275
0.394771
0.396078
0.515033
0.50719
0.556863
0.568627
0.576471
0.40915
0.513725
0.547712
0.546405
0.555556
0.555556
0.552941
0.534641
0.547712
0.542484
0.552941
0.528105
0.550327
0.539869
0.552941
0.50719
0.54902
0.526797
0.546405
0.551634
0.545098
0.554248
0.539869
0.537255
0.511111
0.51634
0.500654
0.543791
0.522876
0.535948
0.52549
0.547712
0.533333
0.54902
0.539869
0.501961
0.496732
0.541176
0.541176
0.537255
0.550327
0.556863
0.547712
0.554248
0.551634
0.550327
0.556863
0.551634
0.554248
0.556863
0.554248
0.55817
0.556863
0.55817
0.55817
0.541176
0.546405
0.537255
0.541176
0.545098
0.554248
0.554248
0.551634
0.556863
0.504575
0.470588
0.560784
0.552941
0.54902
0.556863
0.55817
0.530719
0.535948
0.535948
0.528105
0.539869
0.309804
0.393464
0.39085
0.375163
0.394771
0.407843
0.520261
0.524183
0.520261
0.534641
0.528105
0.530719
0.524183
0.528105
0.528105
0.521569
0.517647
0.51634
0.484967
0.521569
0.461438
0.515033
0.518954
0.509804
0.518954
0.405229
0.346405
0.300654
0.261438
0.350327
0.19085
0.500654
0.396078
0.521569
0.521569
0.333333
0.508497
0.427451
0.309804
0.601307
0.445752
0.36732
0.338562
0.44183
0.515033
0.384314
0.500654
0.512418
0.48366
0.4
0.496732
0.501961
0.501961
0.49281
0.495425
0.498039
0.491503
0.496732
0.490196
0.498039
0.499346
0.496732
0.496732
0.500654
0.499346
0.51634
0.513725
0.50719
0.51634
0.520261
0.517647
0.515033
0.51634
0.505882
0.500654
0.511111
0.512418
0.51634
0.494118
0.515033
0.513725
0.511111
0.500654
0.50719
0.505882
0.487582
0.501961
0.488889
0.495425
0.501961
0.498039
0.499346
0.491503
0.496732
0.47451
0.464052
0.473203
0.491503
0.478431
0.478431
0.488889
0.484967
0.495425
0.479739
0.481046
0.481046
0.481046
0.479739
0.477124
0.478431
0.479739
0.481046
0.475817
0.478431
0.477124
0.470588
0.47451
0.475817
0.464052
0.461438
0.470588
0.473203
0.473203
0.469281
0.466667
0.460131
0.464052
0.460131
0.457516
0.467974
0.469281
0.467974
0.464052
0.466667
0.466667
0.466667
0.458824
0.460131
0.460131
0.461438
0.464052
0.465359
0.465359
0.473203
0.467974
0.467974
0.471895
0.473203
0.475817
0.47451
0.467974
0.470588
0.465359
0.467974
0.469281
0.469281
0.478431
0.47451
0.477124
0.482353
0.477124
0.478431
0.477124
0.475817
0.477124
0.475817
0.47451
0.473203
0.471895
0.471895
0.475817
0.477124
0.47451
0.477124
0.477124
0.478431
0.477124
0.479739
0.477124
0.475817
0.477124
0.475817
0.475817
0.478431
0.477124
0.477124
0.479739
0.48366
0.48366
0.490196
0.486275
0.482353
0.490196
0.478431
0.477124
0.481046
0.478431
0.479739
0.479739
0.475817
0.475817
0.48366
0.478431
0.477124
0.486275
0.491503
0.484967
0.487582
0.495425
0.488889
0.488889
0.494118
0.495425
0.494118
0.496732
0.494118
0.496732
0.495425
0.495425
0.453595
0.494118
0.494118
0.31634
0.415686
0.491503
0.277124
0.375163
0.282353
0.44183
0.333333
0.329412
0.334641
0.266667
0.313725
0.354248
0.363399
0.288889
0.308497
0.303268
0.169935
0.383007
0.294118
0.27451
0.30719
0.194771
0.339869
0.466667
0.261438
0.333333
0.237908
0.282353
0.308497
0.224837
0.335948
0.320261
0.55817
0.448366
0.333333
0.490196
0.547712
0.355556
0.401307
0.393464
0.228758
0.347712
0.20915
0.363399
0.338562
0.298039
0.453595
0.488889
0.334641
0.32549
0.490196
0.414379
0.482353
0.481046
0.482353
0.481046
0.479739
0.484967
0.479739
0.488889
0.48366
0.481046
0.48366
0.482353
0.477124
0.477124
0.484967
0.490196
0.30719
0.356863
0.467974
0.329412
0.40915
0.278431
0.462745
0.317647
0.279739
0.398693
0.275817
0.23268
0.448366
0.384314
0.351634
0.376471
0.220915
0.282353
0.262745
0.329412
0.482353
0.479739
0.478431
0.481046
0.478431
0.486275
0.49281
0.454902
0.287582
0.445752
0.301961
0.482353
0.481046
0.48366
0.481046
0.48366
0.487582
0.385621
0.227451
0.320261
0.313725
0.486275
0.542484
0.354248
0.528105
0.352941
0.500654
0.133333
0.423529
0.294118
0.465359
0.528105
0.402614
0.496732
0.333333
0.380392
0.359477
0.4
0.169935
0.243137
0.248366
0.345098
0.291503
0.264052
0.184314
0.301961
0.205229
0.281046
0.15817
0.264052
0.223529
0.173856
0.313725
0.300654
0.213072
0.300654
0.275817
0.337255
0.338562
0.312418
0.31634
0.32549
0.215686
0.230065
0.422222
0.29281
0.313725
0.271895
0.464052
0.345098
0.235294
0.486275
0.25098
0.512418
0.32549
0.315033
0.422222
0.341176
0.580392
0.332026
0.383007
0.445752
0.433987
0.573856
0.453595
0.457516
0.355556
0.402614
0.15817
0.326797
0.520261
0.279739
0.475817
0.566013
0.444444
0.264052
0.341176
0.416993
0.398693
0.384314
0.260131
0.252288
0.330719
0.48366
0.326797
0.435294
0.311111
0.377778
0.279739
0.324183
0.518954
0.511111
0.350327
0.452288
0.375163
0.28366
0.339869
0.231373
0.388235
0.381699
0.308497
0.205229
0.215686
0.389542
0.270588
0.379085
0.320261
0.386928
0.278431
0.529412
0.532026
0.359477
0.534641
0.415686
0.422222
0.501961
0.257516
0.290196
0.308497
0.269281
0.27451
0.550327
0.439216
0.453595
0.437908
0.43268
0.543791
0.552941
0.54902
0.555556
0.552941
0.560784
0.54902
0.551634
0.545098
0.543791
0.541176
0.453595
0.537255
0.543791
0.552941
0.551634
0.543791
0.545098
0.542484
0.414379
0.44183
0.508497
0.560784
0.556863
0.406536
0.559477
0.560784
0.559477
0.284967
0.49281
0.277124
0.55817
0.559477
0.236601
0.355556
0.55817
0.377778
0.482353
0.260131
0.219608
0.515033
0.205229
0.317647
0.385621
0.39085
0.443137
0.550327
0.304575
0.55817
0.55817
0.547712
0.551634
0.155556
0.166013
0.303268
0.252288
0.273203
0.333333
0.465359
0.313725
0.547712
0.206536
0.495425
0.311111
0.63268
0.437908
0.261438
0.290196
0.54902
0.500654
0.309804
0.51634
0.448366
0.294118
0.401307
0.341176
0.303268
0.351634
0.193464
0.301961
0.352941
0.43268
0.563399
0.550327
0.143791
0.258824
0.403922
0.215686
0.261438
0.461438
0.394771
0.311111
0.329412
0.580392
0.415686
0.465359
0.521569
0.253595
0.498039
0.410458
0.334641
0.377778
0.305882
0.503268
0.524183
0.495425
0.397386
0.257516
0.352941
0.193464
0.396078
0.159477
0.27451
0.439216
0.338562
0.201307
0.469281
0.226144
0.431373
0.616993
0.569935
0.547712
0.44183
0.504575
0.456209
0.430065
0.324183
0.577778
0.298039
0.375163
0.185621
0.545098
0.562092
0.469281
0.593464
0.495425
0.534641
0.415686
0.596078
0.433987
0.515033
0.550327
0.424837
0.55817
0.373856
0.449673
0.411765
0.445752
0.443137
0.419608
0.511111
0.484967
0.368627
0.551634
0.47451
0.439216
0.377778
0.39085
0.347712
0.281046
0.469281
0.308497
0.294118
0.462745
0.282353
0.299346
0.288889
0.351634
0.308497
0.262745
0.315033
0.270588
0.294118
0.282353
0.299346
0.27451
0.393464
0.294118
0.287582
0.25098
0.414379
0.197386
0.311111
0.309804
0.426144
0.290196
0.364706
0.286275
0.355556
0.304575
0.300654
0.304575
0.301961
0.466667
0.354248
0.500654
0.291503
0.447059
0.534641
0.435294
0.338562
0.299346
0.478431
0.518954
0.267974
0.414379
0.464052
0.320261
0.447059
0.467974
0.383007
0.411765
0.34902
0.454902
0.490196
0.380392
0.321569
0.388235
0.329412
0.29281
0.335948
0.309804
0.373856
0.398693
0.270588
0.487582
0.245752
0.377778
0.260131
0.343791
0.394771
0.318954
0.428758
0.28366
0.226144
0.363399
0.444444
0.457516
0.456209
0.341176
0.414379
0.313725
0.330719
0.398693
0.309804
0.413072
0.491503
0.552941
0.326797
0.32549
0.479739
0.288889
0.296732
0.286275
0.329412
0.439216
0.286275
0.231373
0.300654
0.312418
0.4
0.277124
0.228758
0.32549
0.423529
0.449673
0.410458
0.635294
0.52549
0.535948
0.396078
0.32549
0.261438
0.294118
0.155556
0.260131
0.252288
0.362092
0.303268
0.309804
0.294118
0.427451
0.488889
0.490196
0.482353
0.477124
0.478431
0.48366
0.481046
0.490196
0.484967
0.490196
0.486275
0.491503
0.488889
0.481046
0.481046
0.48366
0.484967
0.478431
0.482353
0.482353
0.495425
0.491503
0.352941
0.498039
0.163399
0.254902
0.333333
0.206536
0.439216
0.249673
0.494118
0.490196
0.498039
0.495425
0.193464
0.375163
0.487582
0.482353
0.484967
0.475817
0.475817
0.479739
0.475817
0.481046
0.477124
0.487582
0.481046
0.482353
0.48366
0.477124
0.481046
0.481046
0.478431
0.478431
0.479739
0.486275
0.484967
0.478431
0.494118
0.491503
0.495425