# vtk DataFile Version 1.0
Unstructured Grid Example
ASCII

DATASET UNSTRUCTURED_GRID
POINTS 951 float
205 365 0
208 365 0
211 365 0
214 365 0
217 365 0
222 365 0
201 364 0
227 364 0
194 363 0
198 363 0
230 363 0
234 363 0
237 362 0
190 361 0
240 361 0
186 360 0
209 360 0
214 360 0
217 360 0
220 360 0
245 360 0
183 359 0
205 359 0
230 359 0
249 359 0
195 358 0
199 358 0
202 358 0
222 358 0
227 358 0
233 358 0
180 357 0
219 357 0
236 357 0
177 356 0
193 356 0
204 356 0
208 356 0
211 356 0
252 356 0
190 355 0
199 355 0
239 355 0
242 355 0
171 354 0
175 354 0
206 354 0
220 354 0
256 354 0
168 353 0
185 353 0
244 353 0
248 353 0
162 352 0
165 352 0
181 352 0
259 352 0
177 351 0
263 351 0
238 350 0
250 350 0
253 350 0
161 349 0
242 349 0
248 349 0
265 349 0
158 348 0
175 348 0
153 347 0
269 347 0
172 346 0
241 346 0
248 346 0
261 346 0
238 345 0
258 345 0
273 345 0
150 344 0
164 344 0
263 344 0
144 343 0
147 343 0
161 343 0
167 343 0
252 343 0
158 342 0
249 342 0
255 342 0
258 342 0
261 342 0
267 342 0
277 342 0
270 341 0
140 340 0
264 340 0
274 340 0
280 340 0
153 339 0
156 339 0
259 339 0
137 338 0
269 338 0
134 337 0
150 337 0
261 337 0
276 337 0
283 337 0
271 336 0
131 335 0
286 335 0
146 334 0
273 334 0
276 334 0
127 332 0
144 332 0
211 332 0
271 332 0
288 332 0
274 331 0
125 330 0
141 330 0
204 330 0
291 330 0
121 329 0
277 329 0
280 329 0
136 328 0
283 328 0
295 328 0
119 326 0
285 326 0
134 325 0
300 325 0
115 324 0
287 324 0
291 324 0
113 322 0
131 321 0
292 321 0
302 321 0
111 320 0
128 319 0
290 318 0
305 318 0
123 317 0
126 317 0
112 316 0
109 314 0
122 314 0
292 314 0
297 314 0
309 314 0
299 312 0
107 311 0
123 311 0
295 311 0
105 309 0
119 309 0
301 309 0
304 309 0
313 309 0
116 308 0
298 307 0
105 306 0
302 306 0
315 306 0
115 305 0
103 304 0
306 304 0
111 303 0
317 302 0
102 301 0
114 301 0
307 301 0
117 300 0
108 299 0
101 298 0
304 297 0
320 297 0
109 295 0
100 294 0
306 293 0
110 292 0
322 292 0
107 291 0
228 291 0
97 290 0
104 290 0
309 290 0
107 288 0
110 288 0
114 288 0
103 287 0
311 287 0
322 287 0
319 286 0
95 285 0
174 285 0
103 284 0
313 284 0
323 284 0
214 283 0
91 281 0
99 281 0
202 281 0
314 281 0
325 281 0
92 278 0
98 278 0
198 278 0
274 278 0
313 277 0
325 277 0
93 275 0
98 275 0
205 274 0
312 274 0
323 274 0
315 273 0
90 271 0
99 270 0
316 270 0
205 269 0
325 269 0
89 268 0
98 267 0
316 267 0
90 265 0
105 265 0
319 265 0
326 265 0
99 264 0
111 264 0
90 262 0
328 262 0
99 261 0
102 261 0
105 261 0
321 261 0
96 260 0
159 260 0
88 259 0
132 258 0
326 258 0
321 257 0
87 256 0
96 256 0
235 256 0
94 253 0
238 253 0
319 253 0
326 253 0
87 252 0
225 252 0
329 252 0
86 249 0
95 249 0
318 249 0
331 248 0
94 246 0
97 245 0
100 245 0
184 245 0
317 245 0
332 245 0
87 243 0
98 242 0
149 242 0
319 242 0
322 241 0
332 241 0
88 240 0
96 240 0
201 240 0
229 239 0
234 239 0
324 238 0
334 238 0
99 237 0
212 237 0
108 236 0
231 236 0
329 236 0
86 235 0
89 235 0
215 235 0
235 235 0
333 235 0
98 234 0
323 234 0
109 233 0
329 233 0
86 232 0
105 232 0
333 231 0
97 230 0
102 230 0
323 230 0
105 229 0
117 228 0
248 228 0
88 227 0
322 227 0
332 227 0
96 226 0
123 226 0
142 226 0
198 226 0
88 224 0
212 224 0
333 224 0
294 223 0
197 222 0
321 222 0
88 221 0
95 221 0
182 221 0
210 221 0
324 221 0
163 219 0
333 219 0
87 218 0
94 218 0
173 217 0
196 217 0
264 217 0
325 217 0
165 216 0
250 216 0
87 215 0
95 215 0
191 215 0
261 215 0
249 214 0
323 214 0
331 214 0
97 213 0
162 213 0
194 213 0
273 213 0
89 212 0
324 211 0
332 211 0
99 210 0
222 210 0
260 210 0
88 209 0
257 209 0
264 209 0
96 208 0
193 208 0
101 207 0
260 207 0
87 206 0
94 206 0
325 206 0
332 206 0
195 205 0
201 205 0
257 205 0
191 204 0
233 204 0
87 203 0
93 203 0
238 202 0
248 202 0
331 202 0
95 201 0
245 201 0
324 201 0
85 200 0
233 200 0
251 200 0
98 198 0
254 198 0
174 197 0
248 197 0
324 197 0
329 197 0
85 196 0
251 196 0
150 195 0
257 195 0
95 194 0
87 193 0
160 193 0
328 193 0
164 192 0
253 192 0
322 192 0
96 191 0
257 191 0
88 190 0
260 190 0
322 189 0
97 188 0
254 188 0
328 188 0
263 187 0
258 186 0
87 185 0
95 185 0
323 185 0
162 184 0
261 184 0
328 184 0
266 183 0
86 182 0
147 182 0
155 182 0
159 181 0
263 181 0
322 181 0
327 181 0
93 180 0
142 179 0
152 179 0
85 178 0
322 178 0
95 177 0
155 177 0
141 176 0
150 176 0
327 176 0
146 175 0
321 175 0
85 174 0
330 174 0
142 173 0
326 173 0
95 172 0
145 171 0
270 171 0
318 171 0
85 170 0
141 170 0
315 170 0
326 170 0
279 169 0
283 169 0
137 167 0
313 167 0
85 166 0
96 166 0
286 166 0
326 166 0
142 165 0
283 165 0
290 165 0
314 163 0
85 162 0
134 162 0
289 162 0
125 161 0
139 161 0
286 161 0
328 161 0
97 160 0
128 159 0
313 159 0
85 158 0
286 158 0
289 158 0
294 157 0
328 157 0
96 155 0
125 155 0
298 155 0
84 154 0
285 154 0
292 154 0
313 154 0
289 153 0
296 153 0
300 153 0
97 152 0
329 152 0
100 151 0
84 150 0
288 150 0
300 150 0
304 150 0
309 150 0
96 149 0
99 148 0
285 148 0
83 147 0
94 147 0
103 147 0
301 147 0
309 147 0
331 147 0
304 146 0
287 145 0
95 144 0
102 144 0
298 144 0
306 144 0
105 143 0
332 143 0
82 142 0
301 142 0
90 141 0
298 141 0
287 140 0
97 139 0
303 139 0
310 139 0
336 139 0
90 138 0
316 138 0
319 138 0
300 137 0
81 136 0
98 136 0
307 136 0
311 136 0
315 135 0
318 135 0
338 135 0
98 133 0
299 133 0
306 133 0
310 132 0
80 131 0
301 131 0
317 131 0
286 130 0
341 129 0
80 128 0
86 128 0
97 128 0
308 128 0
89 127 0
103 127 0
284 127 0
300 127 0
317 127 0
77 126 0
92 126 0
287 126 0
343 126 0
85 125 0
98 125 0
298 125 0
309 125 0
320 125 0
94 124 0
104 124 0
112 124 0
115 124 0
295 124 0
312 124 0
317 124 0
109 123 0
282 123 0
286 123 0
345 123 0
77 122 0
96 122 0
290 122 0
323 122 0
339 122 0
84 121 0
106 121 0
116 121 0
314 121 0
317 121 0
342 121 0
94 120 0
281 120 0
287 120 0
76 119 0
108 119 0
129 119 0
134 119 0
325 119 0
338 119 0
348 119 0
73 118 0
81 118 0
84 118 0
118 118 0
122 118 0
313 118 0
331 118 0
299 117 0
340 117 0
77 116 0
109 116 0
126 116 0
302 116 0
326 116 0
343 116 0
351 116 0
86 115 0
279 115 0
332 115 0
354 115 0
112 114 0
128 114 0
137 114 0
304 114 0
311 114 0
345 114 0
69 113 0
76 113 0
81 113 0
297 113 0
114 112 0
326 112 0
329 112 0
333 112 0
341 112 0
356 112 0
72 111 0
293 111 0
301 111 0
305 111 0
308 111 0
336 111 0
141 110 0
275 110 0
360 110 0
115 109 0
303 109 0
328 109 0
333 109 0
345 109 0
348 109 0
288 108 0
291 108 0
338 108 0
143 107 0
272 107 0
300 107 0
350 107 0
353 107 0
364 107 0
268 106 0
327 106 0
340 106 0
115 105 0
303 105 0
316 105 0
333 105 0
356 105 0
62 104 0
118 104 0
146 104 0
265 104 0
283 104 0
299 104 0
336 104 0
366 104 0
307 103 0
313 103 0
328 103 0
59 102 0
69 102 0
120 102 0
126 102 0
130 102 0
133 102 0
262 102 0
285 102 0
318 102 0
333 102 0
357 102 0
282 101 0
309 101 0
330 101 0
337 101 0
340 101 0
360 101 0
135 100 0
287 100 0
302 100 0
306 100 0
312 100 0
364 100 0
66 99 0
121 99 0
130 99 0
150 99 0
280 99 0
344 99 0
137 98 0
257 98 0
299 98 0
316 98 0
323 98 0
331 98 0
45 97 0
287 97 0
296 97 0
353 97 0
121 96 0
129 96 0
153 96 0
278 96 0
302 96 0
49 95 0
254 95 0
319 95 0
138 94 0
285 94 0
291 94 0
294 94 0
315 94 0
332 94 0
122 93 0
127 93 0
132 93 0
155 93 0
267 93 0
270 93 0
278 93 0
43 92 0
251 92 0
275 92 0
141 91 0
285 91 0
36 90 0
122 90 0
135 90 0
157 90 0
273 90 0
314 90 0
320 90 0
40 89 0
143 89 0
279 89 0
292 89 0
138 88 0
160 88 0
265 88 0
284 88 0
316 88 0
33 87 0
133 87 0
281 87 0
312 87 0
347 87 0
37 86 0
123 86 0
246 86 0
260 86 0
30 85 0
151 85 0
293 85 0
41 84 0
120 84 0
131 84 0
139 84 0
147 84 0
164 84 0
263 84 0
124 83 0
28 82 0
32 82 0
37 82 0
133 82 0
297 82 0
136 81 0
140 81 0
147 81 0
169 81 0
239 81 0
23 80 0
295 80 0
33 79 0
142 79 0
292 79 0
30 78 0
124 78 0
137 78 0
22 77 0
174 77 0
236 77 0
18 76 0
139 76 0
142 76 0
289 76 0
335 76 0
338 76 0
345 76 0
146 75 0
297 75 0
320 75 0
323 75 0
332 75 0
349 75 0
357 75 0
362 75 0
230 74 0
293 74 0
315 74 0
343 74 0
13 73 0
29 73 0
311 73 0
339 73 0
346 73 0
123 72 0
182 72 0
297 72 0
353 72 0
23 71 0
330 71 0
337 71 0
341 71 0
357 71 0
15 70 0
33 70 0
188 70 0
302 70 0
326 70 0
18 69 0
28 69 0
223 69 0
322 69 0
354 69 0
11 68 0
126 68 0
196 68 0
298 68 0
305 68 0
349 68 0
217 67 0
301 67 0
315 67 0
318 67 0
341 67 0
345 67 0
204 66 0
212 66 0
296 66 0
309 66 0
55 65 0
339 65 0
127 64 0
303 64 0
311 64 0
314 64 0
322 64 0
295 63 0
318 63 0
325 63 0
331 63 0
337 63 0
306 62 0
328 62 0
254 61 0
259 61 0
265 61 0
271 61 0
276 61 0
282 61 0
311 61 0
126 60 0
248 60 0
286 60 0
296 60 0
335 60 0
291 59 0
309 59 0
331 59 0
243 58 0
125 56 0
314 56 0
139 55 0
145 55 0
152 55 0
335 55 0
161 54 0
182 54 0
316 54 0
331 54 0
34 53 0
134 53 0
167 53 0
237 53 0
312 53 0
127 52 0
178 52 0
321 52 0
170 50 0
184 50 0
335 50 0
180 49 0
233 49 0
316 49 0
321 49 0
331 49 0
173 47 0
323 47 0
184 46 0
329 46 0
320 45 0
332 45 0
336 45 0
177 43 0
231 43 0
326 43 0
198 42 0
334 41 0
180 40 0
201 40 0
323 40 0
329 38 0
181 37 0
228 37 0
199 36 0
207 36 0
211 36 0
189 35 0
182 34 0
204 33 0
207 33 0
212 33 0
183 31 0
225 31 0
186 30 0
201 29 0
211 29 0
186 26 0
224 26 0
202 25 0
210 25 0
204 23 0
200 22 0
222 21 0
186 20 0
205 20 0
209 20 0
201 19 0
206 17 0
222 17 0
189 16 0
192 14 0
188 13 0
221 13 0
188 10 0
221 8 0
192 7 0
189 6 0
222 5 0
188 2 0
198 2 0
222 2 0
CELLS 951 1902
1 0
1 1
1 2
1 3
1 4
1 5
1 6
1 7
1 8
1 9
1 10
1 11
1 12
1 13
1 14
1 15
1 16
1 17
1 18
1 19
1 20
1 21
1 22
1 23
1 24
1 25
1 26
1 27
1 28
1 29
1 30
1 31
1 32
1 33
1 34
1 35
1 36
1 37
1 38
1 39
1 40
1 41
1 42
1 43
1 44
1 45
1 46
1 47
1 48
1 49
1 50
1 51
1 52
1 53
1 54
1 55
1 56
1 57
1 58
1 59
1 60
1 61
1 62
1 63
1 64
1 65
1 66
1 67
1 68
1 69
1 70
1 71
1 72
1 73
1 74
1 75
1 76
1 77
1 78
1 79
1 80
1 81
1 82
1 83
1 84
1 85
1 86
1 87
1 88
1 89
1 90
1 91
1 92
1 93
1 94
1 95
1 96
1 97
1 98
1 99
1 100
1 101
1 102
1 103
1 104
1 105
1 106
1 107
1 108
1 109
1 110
1 111
1 112
1 113
1 114
1 115
1 116
1 117
1 118
1 119
1 120
1 121
1 122
1 123
1 124
1 125
1 126
1 127
1 128
1 129
1 130
1 131
1 132
1 133
1 134
1 135
1 136
1 137
1 138
1 139
1 140
1 141
1 142
1 143
1 144
1 145
1 146
1 147
1 148
1 149
1 150
1 151
1 152
1 153
1 154
1 155
1 156
1 157
1 158
1 159
1 160
1 161
1 162
1 163
1 164
1 165
1 166
1 167
1 168
1 169
1 170
1 171
1 172
1 173
1 174
1 175
1 176
1 177
1 178
1 179
1 180
1 181
1 182
1 183
1 184
1 185
1 186
1 187
1 188
1 189
1 190
1 191
1 192
1 193
1 194
1 195
1 196
1 197
1 198
1 199
1 200
1 201
1 202
1 203
1 204
1 205
1 206
1 207
1 208
1 209
1 210
1 211
1 212
1 213
1 214
1 215
1 216
1 217
1 218
1 219
1 220
1 221
1 222
1 223
1 224
1 225
1 226
1 227
1 228
1 229
1 230
1 231
1 232
1 233
1 234
1 235
1 236
1 237
1 238
1 239
1 240
1 241
1 242
1 243
1 244
1 245
1 246
1 247
1 248
1 249
1 250
1 251
1 252
1 253
1 254
1 255
1 256
1 257
1 258
1 259
1 260
1 261
1 262
1 263
1 264
1 265
1 266
1 267
1 268
1 269
1 270
1 271
1 272
1 273
1 274
1 275
1 276
1 277
1 278
1 279
1 280
1 281
1 282
1 283
1 284
1 285
1 286
1 287
1 288
1 289
1 290
1 291
1 292
1 293
1 294
1 295
1 296
1 297
1 298
1 299
1 300
1 301
1 302
1 303
1 304
1 305
1 306
1 307
1 308
1 309
1 310
1 311
1 312
1 313
1 314
1 315
1 316
1 317
1 318
1 319
1 320
1 321
1 322
1 323
1 324
1 325
1 326
1 327
1 328
1 329
1 330
1 331
1 332
1 333
1 334
1 335
1 336
1 337
1 338
1 339
1 340
1 341
1 342
1 343
1 344
1 345
1 346
1 347
1 348
1 349
1 350
1 351
1 352
1 353
1 354
1 355
1 356
1 357
1 358
1 359
1 360
1 361
1 362
1 363
1 364
1 365
1 366
1 367
1 368
1 369
1 370
1 371
1 372
1 373
1 374
1 375
1 376
1 377
1 378
1 379
1 380
1 381
1 382
1 383
1 384
1 385
1 386
1 387
1 388
1 389
1 390
1 391
1 392
1 393
1 394
1 395
1 396
1 397
1 398
1 399
1 400
1 401
1 402
1 403
1 404
1 405
1 406
1 407
1 408
1 409
1 410
1 411
1 412
1 413
1 414
1 415
1 416
1 417
1 418
1 419
1 420
1 421
1 422
1 423
1 424
1 425
1 426
1 427
1 428
1 429
1 430
1 431
1 432
1 433
1 434
1 435
1 436
1 437
1 438
1 439
1 440
1 441
1 442
1 443
1 444
1 445
1 446
1 447
1 448
1 449
1 450
1 451
1 452
1 453
1 454
1 455
1 456
1 457
1 458
1 459
1 460
1 461
1 462
1 463
1 464
1 465
1 466
1 467
1 468
1 469
1 470
1 471
1 472
1 473
1 474
1 475
1 476
1 477
1 478
1 479
1 480
1 481
1 482
1 483
1 484
1 485
1 486
1 487
1 488
1 489
1 490
1 491
1 492
1 493
1 494
1 495
1 496
1 497
1 498
1 499
1 500
1 501
1 502
1 503
1 504
1 505
1 506
1 507
1 508
1 509
1 510
1 511
1 512
1 513
1 514
1 515
1 516
1 517
1 518
1 519
1 520
1 521
1 522
1 523
1 524
1 525
1 526
1 527
1 528
1 529
1 530
1 531
1 532
1 533
1 534
1 535
1 536
1 537
1 538
1 539
1 540
1 541
1 542
1 543
1 544
1 545
1 546
1 547
1 548
1 549
1 550
1 551
1 552
1 553
1 554
1 555
1 556
1 557
1 558
1 559
1 560
1 561
1 562
1 563
1 564
1 565
1 566
1 567
1 568
1 569
1 570
1 571
1 572
1 573
1 574
1 575
1 576
1 577
1 578
1 579
1 580
1 581
1 582
1 583
1 584
1 585
1 586
1 587
1 588
1 589
1 590
1 591
1 592
1 593
1 594
1 595
1 596
1 597
1 598
1 599
1 600
1 601
1 602
1 603
1 604
1 605
1 606
1 607
1 608
1 609
1 610
1 611
1 612
1 613
1 614
1 615
1 616
1 617
1 618
1 619
1 620
1 621
1 622
1 623
1 624
1 625
1 626
1 627
1 628
1 629
1 630
1 631
1 632
1 633
1 634
1 635
1 636
1 637
1 638
1 639
1 640
1 641
1 642
1 643
1 644
1 645
1 646
1 647
1 648
1 649
1 650
1 651
1 652
1 653
1 654
1 655
1 656
1 657
1 658
1 659
1 660
1 661
1 662
1 663
1 664
1 665
1 666
1 667
1 668
1 669
1 670
1 671
1 672
1 673
1 674
1 675
1 676
1 677
1 678
1 679
1 680
1 681
1 682
1 683
1 684
1 685
1 686
1 687
1 688
1 689
1 690
1 691
1 692
1 693
1 694
1 695
1 696
1 697
1 698
1 699
1 700
1 701
1 702
1 703
1 704
1 705
1 706
1 707
1 708
1 709
1 710
1 711
1 712
1 713
1 714
1 715
1 716
1 717
1 718
1 719
1 720
1 721
1 722
1 723
1 724
1 725
1 726
1 727
1 728
1 729
1 730
1 731
1 732
1 733
1 734
1 735
1 736
1 737
1 738
1 739
1 740
1 741
1 742
1 743
1 744
1 745
1 746
1 747
1 748
1 749
1 750
1 751
1 752
1 753
1 754
1 755
1 756
1 757
1 758
1 759
1 760
1 761
1 762
1 763
1 764
1 765
1 766
1 767
1 768
1 769
1 770
1 771
1 772
1 773
1 774
1 775
1 776
1 777
1 778
1 779
1 780
1 781
1 782
1 783
1 784
1 785
1 786
1 787
1 788
1 789
1 790
1 791
1 792
1 793
1 794
1 795
1 796
1 797
1 798
1 799
1 800
1 801
1 802
1 803
1 804
1 805
1 806
1 807
1 808
1 809
1 810
1 811
1 812
1 813
1 814
1 815
1 816
1 817
1 818
1 819
1 820
1 821
1 822
1 823
1 824
1 825
1 826
1 827
1 828
1 829
1 830
1 831
1 832
1 833
1 834
1 835
1 836
1 837
1 838
1 839
1 840
1 841
1 842
1 843
1 844
1 845
1 846
1 847
1 848
1 849
1 850
1 851
1 852
1 853
1 854
1 855
1 856
1 857
1 858
1 859
1 860
1 861
1 862
1 863
1 864
1 865
1 866
1 867
1 868
1 869
1 870
1 871
1 872
1 873
1 874
1 875
1 876
1 877
1 878
1 879
1 880
1 881
1 882
1 883
1 884
1 885
1 886
1 887
1 888
1 889
1 890
1 891
1 892
1 893
1 894
1 895
1 896
1 897
1 898
1 899
1 900
1 901
1 902
1 903
1 904
1 905
1 906
1 907
1 908
1 909
1 910
1 911
1 912
1 913
1 914
1 915
1 916
1 917
1 918
1 919
1 920
1 921
1 922
1 923
1 924
1 925
1 926
1 927
1 928
1 929
1 930
1 931
1 932
1 933
1 934
1 935
1 936
1 937
1 938
1 939
1 940
1 941
1 942
1 943
1 944
1 945
1 946
1 947
1 948
1 949
1 950
CELL_TYPES 951
1 1 1 1 1 1 1 1 1 1 1 1 1 1 1 1 1 1 1 1 1 1 1 1 1 1 1 1 1 1 1 1 1 1 1 1 1 1 1 1 1 1 1 1 1 1 1 1 1 1 1 1 1 1 1 1 1 1 1 1 1 1 1 1 1 1 1 1 1 1 1 1 1 1 1 1 1 1 1 1 1 1 1 1 1 1 1 1 1 1 1 1 1 1 1 1 1 1 1 1 1 1 1 1 1 1 1 1 1 1 1 1 1 1 1 1 1 1 1 1 1 1 1 1 1 1 1 1 1 1 1 1 1 1 1 1 1 1 1 1 1 1 1 1 1 1 1 1 1 1 1 1 1 1 1 1 1 1 1 1 1 1 1 1 1 1 1 1 1 1 1 1 1 1 1 1 1 1 1 1 1 1 1 1 1 1 1 1 1 1 1 1 1 1 1 1 1 1 1 1 1 1 1 1 1 1 1 1 1 1 1 1 1 1 1 1 1 1 1 1 1 1 1 1 1 1 1 1 1 1 1 1 1 1 1 1 1 1 1 1 1 1 1 1 1 1 1 1 1 1 1 1 1 1 1 1 1 1 1 1 1 1 1 1 1 1 1 1 1 1 1 1 1 1 1 1 1 1 1 1 1 1 1 1 1 1 1 1 1 1 1 1 1 1 1 1 1 1 1 1 1 1 1 1 1 1 1 1 1 1 1 1 1 1 1 1 1 1 1 1 1 1 1 1 1 1 1 1 1 1 1 1 1 1 1 1 1 1 1 1 1 1 1 1 1 1 1 1 1 1 1 1 1 1 1 1 1 1 1 1 1 1 1 1 1 1 1 1 1 1 1 1 1 1 1 1 1 1 1 1 1 1 1 1 1 1 1 1 1 1 1 1 1 1 1 1 1 1 1 1 1 1 1 1 1 1 1 1 1 1 1 1 1 1 1 1 1 1 1 1 1 1 1 1 1 1 1 1 1 1 1 1 1 1 1 1 1 1 1 1 1 1 1 1 1 1 1 1 1 1 1 1 1 1 1 1 1 1 1 1 1 1 1 1 1 1 1 1 1 1 1 1 1 1 1 1 1 1 1 1 1 1 1 1 1 1 1 1 1 1 1 1 1 1 1 1 1 1 1 1 1 1 1 1 1 1 1 1 1 1 1 1 1 1 1 1 1 1 1 1 1 1 1 1 1 1 1 1 1 1 1 1 1 1 1 1 1 1 1 1 1 1 1 1 1 1 1 1 1 1 1 1 1 1 1 1 1 1 1 1 1 1 1 1 1 1 1 1 1 1 1 1 1 1 1 1 1 1 1 1 1 1 1 1 1 1 1 1 1 1 1 1 1 1 1 1 1 1 1 1 1 1 1 1 1 1 1 1 1 1 1 1 1 1 1 1 1 1 1 1 1 1 1 1 1 1 1 1 1 1 1 1 1 1 1 1 1 1 1 1 1 1 1 1 1 1 1 1 1 1 1 1 1 1 1 1 1 1 1 1 1 1 1 1 1 1 1 1 1 1 1 1 1 1 1 1 1 1 1 1 1 1 1 1 1 1 1 1 1 1 1 1 1 1 1 1 1 1 1 1 1 1 1 1 1 1 1 1 1 1 1 1 1 1 1 1 1 1 1 1 1 1 1 1 1 1 1 1 1 1 1 1 1 1 1 1 1 1 1 1 1 1 1 1 1 1 1 1 1 1 1 1 1 1 1 1 1 1 1 1 1 1 1 1 1 1 1 1 1 1 1 1 1 1 1 1 1 1 1 1 1 1 1 1 1 1 1 1 1 1 1 1 1 1 1 1 1 1 1 1 1 1 1 1 1 1 1 1 1 1 1 1 1 1 1 1 1 1 1 1 1 1 1 1 1 1 1 1 1 1 1 1 1 1 1 1 1 1 1 1 1 1 1 1 1 1 1 1 1 1 1 1 1 1 1 1 1 1 1 1 1 1 1 1 1 1 1 1 1 1 1 1 1 1 1 1 1 1 1 1 1 1 1 1 1 1 1 1 1 1 1 1 1 1 1 1 1 1 1 1 1 1 1 1 1 1 1 1 1 1 1 1 1 1 1 1 1 1 1 1 1 1 1 1 1 1 1 1 1 1 1 1 1 1 1 1 1 1 1 1 1 1 1 1 1 1 1 1 1 1 1 
CELL_DATA 951
COLOR_SCALARS lut 1
0.271784
0.265931
0.26083
0.256059
0.250675
0.241842
0.269636
0.229618
0.278987
0.267135
0.222486
0.228436
0.224147
0.270868
0.219577
0.272126
0.237161
0.232061
0.227813
0.222631
0.223782
0.270573
0.241151
0.206695
0.235161
0.251019
0.247212
0.245133
0.226095
0.21564
0.199916
0.261901
0.238196
0.191169
0.261081
0.25829
0.255983
0.255932
0.254728
0.21515
0.262462
0.264777
0.1794
0.173203
0.256684
0.251615
0.275997
0.267539
0.220425
0.253329
0.266576
0.163953
0.16576
0.252068
0.247439
0.26141
0.217415
0.255604
0.237098
0.194014
0.155599
0.162718
0.222032
0.1731
0.153739
0.226246
0.214571
0.270885
0.216893
0.236967
0.274654
0.199378
0.161258
0.169753
0.236264
0.157631
0.248895
0.202165
0.234737
0.1686
0.223433
0.207299
0.220633
0.27119
0.168387
0.209353
0.191298
0.16792
0.163014
0.163104
0.179279
0.250976
0.189677
0.22233
0.173271
0.206982
0.261169
0.208926
0.224862
0.185061
0.22611
0.187721
0.23856
0.21677
0.203875
0.207386
0.263783
0.198564
0.24427
0.276423
0.236683
0.210324
0.210234
0.24646
0.253169
0.442305
0.236542
0.264753
0.235041
0.240263
0.258776
0.467717
0.272056
0.255198
0.243938
0.23302
0.239654
0.231589
0.292698
0.239363
0.234081
0.248913
0.317462
0.252054
0.234902
0.232793
0.25391
0.26106
0.232667
0.287374
0.259785
0.254945
0.25243
0.279481
0.233835
0.256476
0.230163
0.244448
0.245778
0.273333
0.243675
0.275912
0.246094
0.249012
0.282589
0.282087
0.263026
0.253694
0.254352
0.241635
0.286873
0.235285
0.301842
0.252564
0.270343
0.301568
0.244802
0.270626
0.259658
0.232122
0.315094
0.273608
0.261002
0.271109
0.306878
0.236742
0.275269
0.321238
0.330627
0.251967
0.269005
0.322669
0.272896
0.330763
0.251688
0.623433
0.280391
0.242394
0.303962
0.261231
0.293815
0.360595
0.242681
0.296601
0.311618
0.283161
0.274769
0.818604
0.248284
0.289699
0.316866
0.494987
0.309478
0.242182
0.450984
0.289852
0.338696
0.280685
0.242038
0.465361
1
0.307125
0.326012
0.261269
0.240608
0.429235
0.328445
0.293737
0.294805
0.287722
0.237729
0.293296
0.475122
0.300376
0.296287
0.233541
0.303647
0.276781
0.276703
0.283336
0.301377
0.236599
0.357641
0.272631
0.320666
0.243022
0.261508
0.289832
0.278317
0.239345
0.662987
0.294357
0.65665
0.286841
0.279978
0.304852
0.2484
0.50151
0.251292
0.515355
0.298973
0.27763
0.300615
0.454042
0.301773
0.313241
0.251546
0.316341
0.314487
0.247313
0.251225
0.272702
0.581605
0.341389
0.319341
0.292558
0.248315
0.583443
0.313348
0.279544
0.308337
0.277195
0.236949
0.451533
0.38693
0.403136
0.266515
0.334624
0.239439
0.407977
0.323211
0.38287
0.269522
0.303623
0.262363
0.39828
0.399587
0.312264
0.230492
0.272385
0.324761
0.268545
0.30186
0.278468
0.310958
0.230092
0.256129
0.276598
0.287225
0.442229
0.453738
0.272053
0.290649
0.30051
0.237739
0.531648
0.574697
0.360367
0.272948
0.399049
0.316733
0.727625
0.329077
0.311334
0.273036
0.246736
0.365225
0.395625
0.281475
0.386223
0.319354
0.284821
0.247409
0.347676
0.307645
0.373933
0.280002
0.355961
0.337558
0.283528
0.251657
0.306773
0.326922
0.328014
0.299924
0.29634
0.264897
0.37261
0.305344
0.443016
0.260532
0.293628
0.309494
0.285736
0.451707
0.284577
0.267558
0.274565
0.309163
0.25458
0.332233
0.316307
0.279095
0.276346
0.245081
0.288082
0.314207
0.374514
0.428765
0.268609
0.382264
0.406281
0.275002
0.245608
0.373642
0.290355
0.30677
0.256237
0.314579
0.294626
0.303187
0.441568
0.280305
0.295066
0.280119
0.427819
0.318299
0.292206
0.293754
0.306135
0.303216
0.435835
0.295488
0.275946
0.284833
0.359437
0.290271
0.366774
0.324547
0.305594
0.294576
0.316772
0.28139
0.32914
0.299689
0.31642
0.362925
0.292186
0.36122
0.358169
0.298628
0.301195
0.283618
0.361715
0.370254
0.292024
0.397175
0.316911
0.318017
0.313049
0.34411
0.394054
0.281535
0.282734
0.303087
0.334752
0.304684
0.343722
0.275252
0.327921
0.335908
0.325254
0.308536
0.283621
0.301639
0.275213
0.358126
0.325756
0.309274
0.282285
0.340444
0.31492
0.417201
0.286348
0.370132
0.3113
0.304301
0.295946
0.377009
0.375293
0.322137
0.308063
0.377875
0.349052
0.339314
0.325352
0.335916
0.33479
0.338526
0.299855
0.377614
0.339677
0.30277
0.410449
0.356118
0.299792
0.390458
0.334167
0.382231
0.30246
0.367688
0.29025
0.276461
0.271555
0.415702
0.299064
0.430629
0.26198
0.363604
0.302811
0.255807
0.298385
0.266686
0.247681
0.248601
0.284548
0.438136
0.301266
0.339602
0.281469
0.230958
0.235335
0.255714
0.264517
0.275952
0.330636
0.334501
0.253459
0.317476
0.218869
0.240881
0.449279
0.216676
0.312509
0.242454
0.29277
0.221058
0.213948
0.333376
0.439989
0.317889
0.207159
0.24322
0.218645
0.323314
0.240356
0.198536
0.211261
0.462655
0.23712
0.252624
0.284672
0.206125
0.2988
0.242801
0.193584
0.205757
0.228528
0.256619
0.440213
0.236727
0.210737
0.190344
0.193381
0.278981
0.201378
0.227526
0.317801
0.371925
0.260871
0.222664
0.221686
0.18983
0.215913
0.244363
0.327951
0.2046
0.211515
0.288687
0.215746
0.280073
0.338795
0.221279
0.226502
0.209589
0.191226
0.220152
0.222597
0.243956
0.274054
0.291579
0.218671
0.192471
0.203403
0.256063
0.328133
0.272875
0.309565
0.273203
0.236856
0.235854
0.218488
0.250122
0.229394
0.252038
0.27066
0.195246
0.199759
0.252763
0.248941
0.320848
0.249422
0.280369
0.257605
0.307315
0.347078
0.207881
0.216396
0.284123
0.316696
0.248811
0.244254
0.260726
0.272329
0.196224
0.204729
0.194716
0.20545
0.277183
0.270445
0.270373
0.190738
0.196633
0.210668
0.280174
0.27671
0.314124
0.188286
0.304417
0.267478
0.266734
0.331296
0.186984
0.194799
0.209482
0.356775
0.299109
0.291382
0.187485
0.266515
0.188846
0.182937
0.178636
0.185553
0.290397
0.328967
0.193541
0.179699
0.182758
0.187665
0.176996
0.350419
0.322138
0.320461
0.273058
0.178173
0.18283
0.176183
0.194859
0.20849
0.205633
0.194626
0.178748
0.348851
0.326413
0.176194
0.216558
0.232106
0.356033
0.35981
0.186939
0.185862
0.291366
0.176835
0.196274
0.182479
0.249163
0.387674
0.264887
0.357666
0.367429
0.217112
0.176838
0.18771
0.378517
0.183112
0.191192
0.191522
0.410326
0.381852
0.250864
0.221778
0.221345
0.229578
0.377256
0.201742
0.195833
0.194447
0.261134
0.211277
0.188175
0.198414
0.205391
0.210521
0.291646
0.226296
0.191594
0.181934
0.187001
0.192025
0.349636
0.40176
0.244967
0.208513
0.353735
0.21459
0.232415
0.224697
0.397705
0.183661
0.197412
0.207037
0.217601
0.48212
0.188447
0.183533
0.273242
0.249375
0.200999
0.361609
0.218249
0.19499
0.448827
0.414857
0.210397
0.209539
0.194524
0.187254
0.187719
0.210479
0.252974
0.243409
0.205125
0.19359
0.361242
0.273813
0.258113
0.220856
0.428677
0.444168
0.238215
0.212673
0.204882
0.419577
0.2499
0.191927
0.372289
0.259075
0.231064
0.238764
0.397723
0.21795
0.240447
0.202752
0.196406
0.42038
0.312687
0.228195
0.241321
0.383453
0.195418
0.25161
0.248763
0.314108
0.365363
0.249814
0.513325
0.36912
0.36461
0.281886
0.219446
0.382445
0.300776
0.210122
0.206572
0.246441
0.496393
0.380307
0.252024
0.329504
0.321955
0.344177
0.216583
0.231334
0.220664
0.22572
0.26425
0.581784
0.59252
0.334182
0.235442
0.309999
0.249834
0.250924
0.295188
0.281552
0.247001
0.307344
0.611038
0.595888
0.325302
0.273308
0.284728
0.296206
0.236561
0.237028
0.250184
0.326319
0.239307
0.218922
0.220845
0.227371
0.265955
0.340607
0.420258
0.611341
0.262091
0.217553
0.232753
0.33496
0.294312
0.222451
0.218712
0.242964
0.337288
0.568124
0.241192
0.298377
0.296988
0.200218
0.208299
0.219115
0.352243
0.328319
0.346384
0.556173
0.230431
0.193441
0.325328
0.321455
0.631993
0.188323
0.332357
0.349119
0.338371
0.596514
0.242816
0.223078
0.287174
0.664532
0.234567
0.191182
0.186174
0.22931
0.259595
0.64366
0.672682
0.260746
0.209551
0.724041
0.226971
0.349259
0.238888
0.20467
0.194467
0.184449
0.285394
0.188476
0.186621
0.194079
0.22369
0.237755
0.190656
0.648042
0.65832
0.655151
0.630675
0.580933
0.487687
0.217438
0.361968
0.62295
0.42881
0.309268
0.224509
0.36888
0.244902
0.205963
0.604844
0.39131
0.238595
0.469554
0.534563
0.581101
0.251208
0.569588
0.351692
0.242609
0.223932
0.587637
0.43275
0.482903
0.612253
0.287777
0.42473
0.337119
0.230884
0.427308
0.32056
0.280869
0.30884
0.61819
0.295906
0.252322
0.247557
0.380869
0.259093
0.299043
0.260791
0.306229
0.290185
0.345968
0.337856
0.60201
0.292693
0.330889
0.374823
0.316957
0.309151
0.35752
0.383204
0.31953
0.530585
0.262244
0.284628
0.319695
0.273649
0.321098
0.244626
0.257517
0.299927
0.323013
0.450846
0.293112
0.228605
0.269423
0.305629
0.423359
0.225167
0.256583
0.228448
0.229444
0.390572
0.314694
0.238493
0.259094
0.23544
0.255395
0.389848
0.277419
0.254825
0.285676
0.366641
0.277416
0.328618
0.235946
0.24674
0.301863
0.228112
0.220457
0.265671
