# vtk DataFile Version 1.0
Unstructured Grid Example
ASCII

DATASET UNSTRUCTURED_GRID
POINTS 1198 float
357 75 0
127 64 0
326 43 0
285 154 0
0 175 0
127 93 0
191 204 0
238 253 0
269 338 0
0 357 0
112 316 0
400 218 0
333 224 0
287 140 0
310 139 0
339 122 0
317 121 0
332 75 0
133 87 0
30 85 0
7 1 0
189 35 0
195 1 0
212 1 0
246 1 0
96 155 0
109 116 0
112 114 0
95 172 0
85 158 0
73 118 0
85 162 0
87 252 0
142 173 0
132 258 0
90 262 0
108 400 0
38 400 0
28 400 0
180 357 0
243 400 0
239 355 0
164 344 0
229 239 0
144 332 0
162 184 0
301 131 0
287 126 0
287 145 0
295 311 0
305 318 0
248 353 0
256 354 0
332 211 0
319 253 0
328 161 0
400 142 0
316 138 0
319 138 0
315 135 0
351 116 0
400 117 0
400 93 0
332 115 0
320 90 0
263 84 0
302 116 0
318 1 0
316 49 0
293 74 0
329 46 0
331 59 0
335 50 0
400 35 0
0 38 0
22 1 0
0 67 0
18 69 0
18 76 0
0 80 0
37 82 0
133 82 0
139 84 0
136 81 0
139 76 0
120 1 0
167 53 0
173 1 0
221 8 0
209 20 0
186 20 0
222 5 0
222 2 0
222 21 0
240 1 0
211 29 0
237 53 0
211 36 0
184 50 0
182 34 0
182 54 0
177 43 0
123 86 0
114 112 0
120 102 0
131 84 0
135 100 0
150 99 0
141 110 0
129 119 0
155 177 0
142 165 0
112 124 0
108 119 0
106 121 0
99 148 0
95 177 0
85 178 0
85 174 0
97 152 0
96 149 0
94 120 0
94 124 0
0 109 0
49 95 0
0 87 0
0 116 0
76 119 0
81 136 0
0 150 0
88 224 0
87 218 0
88 221 0
96 208 0
97 213 0
142 226 0
99 210 0
94 253 0
99 281 0
97 230 0
94 246 0
92 278 0
86 232 0
0 248 0
97 290 0
107 288 0
0 314 0
0 383 0
93 400 0
60 400 0
72 400 0
123 400 0
131 400 0
115 324 0
128 319 0
107 311 0
115 305 0
111 303 0
202 358 0
206 354 0
199 358 0
217 360 0
203 400 0
144 400 0
211 365 0
237 362 0
246 400 0
234 363 0
220 360 0
233 358 0
236 357 0
242 355 0
205 274 0
214 283 0
244 353 0
198 278 0
185 353 0
174 285 0
147 343 0
205 269 0
162 213 0
210 221 0
233 204 0
234 239 0
245 201 0
238 202 0
258 186 0
251 196 0
253 192 0
263 187 0
283 169 0
314 163 0
315 170 0
314 281 0
317 245 0
309 290 0
306 293 0
257 205 0
301 309 0
294 223 0
249 342 0
264 340 0
261 337 0
252 343 0
269 347 0
250 400 0
249 359 0
280 340 0
305 400 0
271 336 0
291 330 0
280 329 0
292 321 0
295 328 0
325 277 0
323 274 0
325 281 0
322 287 0
344 400 0
365 400 0
371 400 0
400 395 0
386 400 0
383 400 0
400 372 0
400 295 0
400 281 0
400 267 0
332 245 0
400 256 0
333 235 0
332 227 0
326 253 0
323 230 0
318 249 0
324 211 0
323 185 0
326 173 0
326 166 0
327 176 0
328 184 0
400 162 0
345 109 0
348 119 0
356 112 0
338 108 0
353 107 0
400 100 0
332 94 0
323 98 0
315 94 0
316 88 0
313 103 0
314 121 0
328 157 0
313 159 0
311 114 0
312 124 0
309 147 0
304 114 0
298 155 0
295 124 0
286 123 0
282 101 0
280 99 0
268 106 0
287 97 0
293 111 0
312 100 0
297 82 0
309 66 0
315 67 0
303 64 0
302 70 0
297 75 0
295 80 0
292 79 0
259 61 0
248 60 0
282 61 0
295 63 0
311 61 0
306 62 0
314 56 0
328 62 0
320 45 0
323 47 0
337 63 0
339 65 0
335 76 0
322 69 0
354 69 0
400 78 0
400 64 0
341 67 0
400 8 0
400 4 0
368 1 0
361 1 0
0 20 0
0 1 0
0 4 0
0 15 0
3 1 0
12 1 0
0 10 0
0 63 0
0 54 0
11 68 0
0 61 0
0 58 0
0 31 0
0 45 0
23 71 0
0 70 0
15 70 0
0 73 0
13 73 0
22 77 0
23 80 0
32 82 0
28 82 0
33 79 0
30 78 0
29 73 0
33 70 0
28 69 0
123 72 0
125 56 0
55 65 0
124 78 0
124 83 0
120 84 0
41 84 0
142 79 0
140 81 0
137 78 0
142 76 0
126 68 0
146 75 0
126 60 0
139 55 0
145 55 0
134 53 0
127 52 0
112 1 0
34 53 0
64 1 0
55 1 0
45 1 0
35 1 0
73 1 0
84 1 0
98 1 0
133 1 0
155 1 0
179 1 0
185 1 0
148 1 0
168 1 0
162 1 0
186 30 0
188 13 0
186 26 0
189 16 0
188 10 0
189 6 0
188 2 0
191 1 0
192 14 0
192 7 0
198 2 0
201 1 0
204 1 0
206 17 0
208 1 0
204 23 0
205 20 0
210 25 0
202 25 0
201 29 0
201 19 0
200 22 0
199 36 0
183 31 0
201 40 0
204 33 0
212 33 0
207 36 0
207 33 0
198 42 0
212 66 0
204 66 0
196 68 0
188 70 0
184 46 0
182 72 0
178 52 0
174 77 0
170 50 0
180 49 0
181 37 0
173 47 0
180 40 0
152 55 0
161 54 0
169 81 0
147 81 0
151 85 0
147 84 0
164 84 0
121 96 0
122 93 0
122 90 0
121 99 0
118 104 0
115 105 0
115 109 0
128 114 0
126 116 0
126 102 0
130 102 0
130 99 0
129 96 0
132 93 0
138 88 0
135 90 0
141 91 0
143 89 0
155 93 0
157 90 0
160 88 0
146 104 0
153 96 0
143 107 0
138 94 0
133 102 0
137 114 0
137 98 0
134 119 0
134 162 0
137 167 0
139 161 0
145 171 0
141 170 0
146 175 0
155 182 0
159 181 0
152 179 0
150 176 0
142 179 0
147 182 0
141 176 0
128 159 0
125 161 0
125 155 0
115 124 0
116 121 0
118 118 0
122 118 0
104 124 0
109 123 0
103 127 0
105 143 0
103 147 0
100 151 0
102 144 0
95 185 0
96 191 0
97 188 0
93 180 0
88 190 0
87 185 0
86 182 0
90 141 0
85 166 0
85 170 0
94 147 0
95 144 0
97 160 0
96 166 0
98 136 0
97 139 0
98 133 0
97 128 0
92 126 0
96 122 0
98 125 0
84 121 0
86 115 0
84 118 0
85 125 0
89 127 0
86 128 0
90 138 0
69 113 0
76 113 0
72 111 0
62 104 0
69 102 0
59 102 0
66 99 0
40 89 0
37 86 0
33 87 0
36 90 0
43 92 0
0 97 0
45 97 0
77 116 0
0 124 0
77 126 0
77 122 0
80 128 0
81 113 0
81 118 0
83 147 0
84 154 0
84 150 0
82 142 0
80 131 0
0 133 0
0 163 0
85 196 0
87 193 0
0 194 0
85 200 0
87 206 0
0 209 0
0 229 0
87 215 0
88 227 0
89 235 0
89 212 0
88 209 0
87 203 0
93 203 0
94 206 0
94 218 0
95 194 0
95 215 0
98 198 0
101 207 0
95 201 0
105 229 0
109 233 0
105 232 0
102 230 0
98 234 0
96 226 0
95 221 0
97 245 0
96 260 0
98 242 0
99 237 0
100 245 0
102 261 0
108 236 0
105 261 0
105 265 0
99 270 0
99 261 0
98 275 0
99 264 0
98 267 0
89 268 0
90 271 0
93 275 0
90 265 0
96 256 0
95 249 0
96 240 0
88 240 0
86 235 0
87 243 0
86 249 0
87 256 0
0 262 0
88 259 0
0 370 0
0 330 0
0 301 0
0 377 0
0 289 0
0 342 0
0 276 0
31 400 0
47 400 0
41 400 0
25 400 0
0 394 0
0 388 0
0 397 0
19 400 0
9 400 0
5 400 0
22 400 0
16 400 0
0 400 0
13 400 0
66 400 0
57 400 0
63 400 0
54 400 0
35 400 0
51 400 0
44 400 0
96 400 0
78 400 0
75 400 0
89 400 0
85 400 0
82 400 0
69 400 0
102 400 0
105 400 0
99 400 0
109 314 0
103 304 0
105 309 0
105 306 0
108 299 0
109 295 0
110 292 0
107 291 0
102 301 0
100 294 0
101 298 0
98 278 0
91 281 0
95 285 0
103 284 0
103 287 0
110 288 0
104 290 0
158 348 0
150 344 0
153 347 0
161 343 0
161 349 0
172 346 0
175 348 0
174 400 0
177 400 0
175 354 0
171 354 0
168 353 0
165 352 0
162 352 0
127 400 0
120 400 0
136 400 0
139 400 0
117 400 0
111 400 0
114 400 0
167 400 0
160 400 0
170 400 0
163 400 0
147 400 0
155 400 0
150 400 0
194 363 0
190 361 0
181 400 0
195 400 0
190 400 0
184 400 0
187 400 0
199 400 0
208 400 0
212 400 0
208 365 0
205 365 0
198 363 0
201 364 0
209 360 0
211 356 0
208 356 0
205 359 0
183 359 0
195 358 0
186 360 0
181 352 0
177 351 0
177 356 0
190 355 0
193 356 0
199 355 0
204 356 0
156 339 0
158 342 0
167 343 0
153 339 0
150 337 0
204 330 0
211 332 0
136 328 0
134 325 0
141 330 0
146 334 0
137 338 0
140 340 0
144 343 0
127 332 0
131 335 0
134 337 0
125 330 0
121 329 0
119 326 0
113 322 0
119 309 0
111 320 0
122 314 0
123 311 0
123 317 0
126 317 0
131 321 0
117 300 0
149 242 0
159 260 0
116 308 0
114 301 0
111 264 0
114 288 0
123 226 0
117 228 0
150 195 0
160 193 0
165 216 0
164 192 0
163 219 0
194 213 0
174 197 0
193 208 0
191 215 0
173 217 0
184 245 0
182 221 0
198 226 0
202 281 0
201 240 0
212 224 0
197 222 0
196 217 0
201 205 0
195 205 0
254 198 0
248 197 0
254 188 0
233 200 0
251 200 0
248 202 0
222 210 0
257 195 0
257 209 0
260 207 0
257 191 0
260 190 0
261 184 0
263 181 0
288 150 0
286 158 0
286 161 0
289 153 0
289 162 0
289 158 0
292 154 0
283 165 0
290 165 0
286 166 0
279 169 0
270 171 0
266 183 0
264 209 0
274 278 0
273 213 0
283 328 0
285 326 0
290 318 0
287 324 0
291 324 0
277 329 0
288 332 0
286 335 0
276 337 0
276 334 0
274 331 0
273 334 0
248 228 0
271 332 0
264 217 0
250 216 0
261 215 0
249 214 0
260 210 0
235 235 0
215 235 0
231 236 0
212 237 0
225 252 0
235 256 0
228 291 0
238 345 0
238 350 0
241 346 0
242 349 0
248 346 0
248 349 0
250 350 0
245 360 0
252 356 0
230 359 0
227 358 0
220 354 0
222 358 0
219 357 0
217 365 0
214 360 0
222 365 0
214 365 0
224 400 0
217 400 0
221 400 0
232 400 0
229 400 0
238 400 0
235 400 0
227 364 0
230 363 0
240 361 0
259 352 0
253 350 0
263 351 0
254 400 0
261 400 0
258 400 0
264 400 0
290 400 0
284 400 0
281 400 0
287 400 0
268 400 0
277 400 0
272 400 0
265 349 0
273 345 0
267 342 0
263 344 0
261 346 0
261 342 0
258 345 0
258 342 0
255 342 0
259 339 0
270 341 0
274 340 0
277 342 0
283 337 0
312 274 0
311 287 0
304 297 0
313 277 0
313 284 0
315 273 0
319 286 0
315 306 0
317 302 0
307 301 0
306 304 0
304 309 0
298 307 0
302 306 0
297 314 0
292 314 0
299 312 0
300 325 0
301 400 0
296 400 0
293 400 0
308 400 0
314 400 0
318 400 0
311 400 0
302 321 0
309 314 0
313 309 0
337 400 0
340 400 0
326 400 0
351 400 0
347 400 0
321 400 0
334 400 0
390 400 0
374 400 0
393 400 0
379 400 0
359 400 0
368 400 0
362 400 0
400 382 0
400 364 0
400 390 0
400 399 0
398 400 0
355 400 0
331 400 0
322 292 0
320 297 0
323 284 0
400 308 0
400 355 0
400 320 0
400 335 0
400 241 0
332 241 0
334 238 0
333 231 0
400 231 0
331 214 0
333 219 0
329 236 0
329 233 0
331 248 0
329 252 0
326 265 0
328 262 0
326 258 0
321 261 0
321 257 0
325 269 0
319 265 0
319 242 0
316 267 0
316 270 0
322 241 0
321 222 0
322 227 0
323 234 0
324 238 0
324 221 0
325 217 0
323 214 0
324 201 0
322 192 0
322 189 0
322 178 0
322 181 0
321 175 0
296 153 0
294 157 0
300 153 0
304 150 0
313 154 0
313 167 0
318 171 0
327 181 0
326 170 0
329 152 0
328 188 0
328 193 0
324 197 0
325 206 0
331 202 0
400 203 0
332 206 0
329 197 0
400 188 0
400 177 0
400 151 0
330 174 0
400 133 0
400 124 0
345 123 0
343 126 0
342 121 0
341 129 0
338 135 0
341 112 0
340 117 0
338 119 0
343 116 0
345 114 0
354 115 0
360 110 0
364 107 0
400 108 0
356 105 0
366 104 0
357 102 0
364 100 0
360 101 0
344 99 0
353 97 0
340 101 0
337 101 0
348 109 0
340 106 0
350 107 0
336 111 0
333 112 0
333 109 0
333 105 0
336 104 0
333 102 0
331 98 0
330 101 0
316 98 0
318 102 0
328 103 0
316 105 0
328 109 0
327 106 0
325 119 0
323 122 0
317 124 0
326 112 0
326 116 0
329 112 0
331 118 0
331 147 0
336 139 0
332 143 0
320 125 0
318 135 0
317 131 0
317 127 0
311 136 0
309 150 0
307 136 0
310 132 0
308 128 0
309 125 0
313 118 0
303 139 0
300 127 0
306 133 0
301 142 0
306 144 0
301 147 0
304 146 0
299 133 0
300 150 0
[...]
CELL_DATA 2147
COLOR_SCALARS ColorSpace 1
0.303268
0.267974
0.32549
0.312418
0.312418
0.321569
0.305882
0.215686
0.317647
0.334641
0.317647
0.160784
0.269281
0.31634
0.334641
0.29281
0.31634
0.311111
0.175163
0.397386
0.309804
0.257516
0.284967
0.30719
0.315033
0.277124
0.343791
0.309804
0.342484
0.339869
0.118954
0.324183
0.313725
0.324183
0.416993
0.31634
0.305882
0.376471
0.300654
0.326797
0.322876
0.286275
0.315033
0.303268
0.328105
0.173856
0.309804
0.324183
0.108497
0.31634
0.338562
0.296732
0.328105
0.320261
0.428758
0.396078
0.211765
0.12549
0.14902
0.295425
0.133333
0.366013
0.288889
0.313725
0.257516
0.282353
0.313725
0.30719
0.337255
0.287582
0.339869
0.311111
0.186928
0.29281
0.29281
0.287582
0.321569
0.287582
0.308497
0.30719
0.313725
0.303268
0.15817
0.341176
0.329412
0.315033
0.318954
0.173856
0.300654
0.320261
0.171242
0.245752
0.288889
0.308497
0.317647
0.326797
0.333333
0.351634
0.321569
0.318954
0.304575
0.326797
0.305882
0.222222
0.181699
0.303268
0.329412
0.315033
0.275817
0.304575
0.296732
0.311111
0.329412
0.19085
0.356863
0.332026
0.315033
0.334641
0.266667
0.296732
0.27451
0.137255
0.300654
0.143791
0.15817
0.28366
0.216993
0.401307
0.309804
0.333333
0.308497
0.304575
0.321569
0.317647
0.29281
0.345098
0.322876
0.318954
0.322876
0.295425
0.155556
0.528105
0.35817
0.335948
0.317647
0.28366
0.213072
0.457516
0.309804
0.416993
0.269281
0.35817
0.311111
0.261438
0.29281
0.248366
0.32549
0.356863
0.318954
0.188235
0.356863
0.288889
0.213072
0.330719
0.342484
0.294118
0.245752
0.300654
0.318954
0.230065
0.366013
0.305882
0.294118
0.303268
0.351634
0.295425
0.30719
0.312418
0.296732
0.317647
0.28366
0.332026
0.324183
0.315033
0.366013
0.266667
0.383007
0.32549
0.304575
0.296732
0.326797
0.258824
0.311111
0.342484
0.315033
0.298039
0.334641
0.320261
0.186928
0.265359
0.30719
0.196078
0.335948
0.300654
0.335948
0.301961
0.318954
0.320261
0.313725
0.315033
0.231373
0.309804
0.152941
0.122876
0.15817
0.31634
0.151634
0.324183
0.300654
0.233987
0.275817
0.339869
0.284967
0.315033
0.301961
0.312418
0.329412
0.290196
0.296732
0.304575
0.334641
0.359477
0.301961
0.326797
0.385621
0.414379
0.318954
0.346405
0.335948
0.286275
0.27451
0.287582
0.362092
0.135948
0.226144
0.338562
0.303268
0.294118
0.369935
0.28366
0.147712
0.0797386
0.273203
0.0810458
0.126797
0.202614
0.129412
0.326797
0.284967
0.31634
0.341176
0.273203
0.328105
0.335948
0.329412
0.320261
0.354248
0.341176
0.371242
0.333333
0.309804
0.315033
0.377778
0.304575
0.219608
0.138562
0.321569
0.311111
0.337255
0.16732
0.392157
0.231373
0.300654
0.343791
0.341176
0.386928
0.328105
0.320261
0.393464
0.376471
0.376471
0.32549
0.313725
0.273203
0.304575
0.376471
0.328105
0.233987
0.346405
0.284967
0.334641
0.254902
0.151634
0.388235
0.317647
0.291503
0.305882
0.294118
0.329412
0.184314
0.337255
0.324183
0.260131
0.300654
0.294118
0.286275
0.273203
0.249673
0.29281
0.288889
0.299346
0.329412
0.305882
0.294118
0.30719
0.317647
0.281046
0.275817
0.298039
0.326797
0.287582
0.312418
0.298039
0.290196
0.308497
0.233987
0.303268
0.300654
0.295425
0.301961
0.291503
0.301961
0.326797
0.318954
0.343791
0.286275
0.376471
0.334641
0.320261
0.305882
0.295425
0.296732
0.343791
0.312418
0.228758
0.300654
0.243137
0.216993
0.218301
0.160784
0.356863
0.311111
0.364706
0.300654
0.338562
0.224837
0.337255
0.287582
0.312418
0.284967
0.311111
0.315033
0.321569
0.31634
0.315033
0.244444
0.303268
0.113725
0.311111
0.249673
0.311111
0.171242
0.10719
0.111111
0.111111
0.10719
0.243137
0.315033
0.19085
0.308497
0.248366
0.175163
0.176471
0.247059
0.338562
0.318954
0.256209
0.321569
0.288889
0.338562
0.269281
0.287582
0.330719
0.286275
0.298039
0.300654
0.329412
0.320261
0.341176
0.308497
0.366013
0.303268
0.312418
0.16732
0.266667
0.284967
0.308497
0.304575
0.286275
0.335948
0.19085
0.337255
0.339869
0.321569
0.303268
0.264052
0.324183
0.305882
0.31634
0.300654
0.326797
0.318954
0.301961
0.311111
0.30719
0.313725
0.312418
0.313725
0.347712
0.291503
0.338562
0.305882
0.31634
0.330719
0.330719
0.308497
0.311111
0.321569
0.328105
0.322876
0.328105
0.303268
0.299346
0.30719
0.298039
0.328105
0.31634
0.329412
0.266667
0.345098
0.301961
0.318954
0.222222
0.341176
0.332026
0.311111
0.303268
0.30719
0.304575
0.308497
0.321569
0.295425
0.311111
0.298039
0.309804
0.332026
0.31634
0.298039
0.312418
0.313725
0.313725
0.305882
0.335948
0.32549
0.342484
0.34902
0.362092
0.346405
0.333333
0.414379
0.270588
0.326797
0.34902
0.320261
0.328105
0.317647
0.312418
0.320261
0.304575
0.317647
0.308497
0.315033
0.299346
0.326797
0.309804
0.345098
0.347712
0.35817
0.343791
0.298039
0.303268
0.30719
0.324183
0.321569
0.253595
0.291503
0.179085
0.345098
0.335948
0.253595
0.124183
0.133333
0.328105
0.0862745
0.0875817
0.0862745
0.0875817
0.0888889
0.0901961
0.0875817
0.257516
0.146405
0.183007
0.184314
0.181699
0.183007
0.0836601
0.145098
0.335948
0.32549
0.184314
0.261438
0.360784
0.183007
0.118954
0.321569
0.282353
0.366013
0.147712
0.15817
0.309804
0.330719
0.219608
0.275817
0.364706
0.326797
0.368627
0.329412
0.330719
0.309804
0.343791
0.219608
0.146405
0.30719
0.324183
0.290196
0.222222
0.284967
0.309804
0.312418
0.290196
0.309804
0.287582
0.284967
0.287582
0.354248
0.321569
0.29281
0.315033
0.304575
0.315033
0.324183
0.321569
0.345098
0.298039
0.300654
0.31634
0.25098
0.30719
0.311111
0.305882
0.350327
0.407843
0.418301
0.411765
0.313725
0.248366
0.152941
0.164706
0.162092
0.213072
0.29281
0.304575
0.151634
0.145098
0.146405
0.145098
0.154248
0.155556
0.163399
0.231373
0.175163
0.207843
0.169935
0.2
0.213072
0.141176
0.197386
0.152941
0.318954
0.31634
0.311111
0.211765
0.318954
0.301961
0.303268
0.318954
0.313725
0.233987
0.354248
0.266667
0.324183
0.254902
0.360784
0.290196
0.32549
0.324183
0.329412
0.31634
0.373856
0.433987
0.433987
0.465359
0.324183
0.379085
0.39085
0.291503
0.312418
0.318954
0.317647
0.291503
0.299346
0.32549
0.301961
0.332026
0.300654
0.322876
0.324183
0.317647
0.28366
0.312418
0.322876
0.262745
0.30719
0.305882
0.301961
0.309804
0.315033
0.322876
0.335948
0.320261
0.300654
0.324183
0.315033
0.315033
0.317647
0.260131
0.228758
0.264052
0.231373
0.278431
0.233987
0.426144
0.177778
0.313725
0.322876
0.347712
0.15817
0.311111
0.396078
0.380392
0.256209
0.321569
0.393464
0.29281
0.300654
0.277124
0.290196
0.277124
0.317647
0.30719
0.318954
0.341176
0.215686
0.309804
0.335948
0.271895
0.175163
0.256209
0.339869
0.309804
0.337255
0.313725
0.315033
0.31634
0.231373
0.30719
0.300654
0.311111
0.270588
0.279739
0.279739
0.332026
0.338562
0.332026
0.312418
0.290196
0.309804
0.324183
0.337255
0.342484
0.351634
0.284967
0.304575
0.300654
0.332026
0.305882
0.32549
0.332026
0.34902
0.339869
0.337255
0.338562
0.337255
0.343791
0.30719
0.318954
0.329412
0.269281
0.31634
0.337255
0.304575
0.411765
0.243137
0.304575
0.4
0.359477
0.244444
0.252288
0.345098
0.324183
0.279739
0.326797
0.245752
0.311111
0.32549
0.351634
0.329412
0.345098
0.308497
0.334641
0.303268
0.309804
0.304575
0.296732
0.281046
0.298039
0.301961
0.317647
0.286275
0.355556
0.275817
0.261438
0.279739
0.298039
0.300654
0.262745
0.341176
0.29281
0.345098
0.330719
0.298039
0.345098
0.290196
0.288889
0.294118
0.299346
0.265359
0.25098
0.286275
0.286275
0.320261
0.305882
0.27451
0.29281
0.30719
0.286275
0.341176
0.312418
0.28366
0.332026
0.305882
0.294118
0.300654
0.30719
0.298039
0.30719
0.294118
0.305882
0.30719
0.299346
0.329412
0.308497
0.282353
0.315033
0.31634
0.328105
0.320261
0.341176
0.375163
0.335948
0.309804
0.347712
0.290196
0.334641
0.298039
0.326797
0.356863
0.290196
0.328105
0.282353
0.320261
0.326797
0.342484
0.284967
0.128105
0.265359
0.180392
0.282353
0.330719
0.343791
0.30719
0.300654
0.332026
0.311111
0.346405
0.32549
0.300654
0.342484
0.321569
0.313725
0.311111
0.32549
0.311111
0.322876
0.329412
0.300654
0.309804
0.324183
0.324183
0.34902
0.326797
0.31634
0.311111
0.354248
0.305882
0.322876
0.341176
0.309804
0.326797
0.301961
0.32549
0.273203
0.311111
0.301961
0.299346
0.317647
0.345098
0.309804
0.305882
0.312418
0.305882
0.30719
0.312418
0.308497
0.304575
0.303268
0.295425
0.269281
0.352941
0.324183
0.356863
0.27451
0.108497
0.256209
0.320261
0.329412
0.381699
0.111111
0.278431
0.273203
0.299346
0.313725
0.126797
0.2
0.301961
0.257516
0.332026
0.333333
0.308497
0.305882
0.321569
0.313725
0.329412
0.337255
0.15817
0.247059
0.202614
0.247059
0.203922
0.264052
0.189542
0.252288
0.295425
0.301961
0.128105
0.171242
0.146405
0.207843
0.303268
0.269281
0.143791
0.224837
0.210458
0.287582
0.330719
0.29281
0.227451
0.154248
0.304575
0.231373
0.303268
0.330719
0.304575
0.347712
0.347712
0.328105
0.373856
0.30719
0.321569
0.281046
0.345098
0.320261
0.347712
0.345098
0.346405
0.317647
0.32549
0.32549
0.32549
0.338562
0.369935
0.303268
0.303268
0.308497
0.329412
0.398693
0.284967
0.385621
0.287582
0.303268
0.27451
0.318954
0.355556
0.273203
0.334641
0.334641
0.34902
0.356863
0.34902
0.318954
0.356863
0.321569
0.444444
0.311111
0.311111
0.270588
0.27451
0.271895
0.291503
0.311111
0.388235
0.30719
0.312418
0.284967
0.295425
0.342484
0.300654
0.356863
0.386928
0.337255
0.362092
0.322876
0.350327
0.324183
0.326797
0.338562
0.313725
0.394771
0.305882
0.145098
0.31634
0.291503
0.271895
0.372549
0.330719
0.422222
0.396078
0.304575
0.287582
0.34902
0.338562
0.296732
0.333333
0.154248
0.305882
0.275817
0.309804
0.205229
0.299346
0.35817
0.233987
0.296732
0.301961
0.351634
0.075817
0.215686
0.130719
0.146405
0.075817
0.286275
0.198693
0.160784
0.222222
0.0771242
0.075817
0.075817
0.0745098
0.0771242
0.0810458
0.0771242
0.0810458
0.075817
0.0836601
0.075817
0.0810458
0.0771242
0.0745098
0.126797
0.075817
0.126797
0.075817
0.0745098
0.0797386
0.075817
0.0745098
0.207843
0.138562
0.126797
0.152941
0.150327
0.14902
0.12549
0.129412
0.129412
0.130719
0.262745
0.269281
0.362092
0.137255
0.32549
0.2
0.318954
0.275817
0.291503
0.338562
0.389542
0.308497
0.317647
0.318954
0.320261
0.296732
0.4
0.27451
0.196078
0.309804
0.299346
0.308497
0.288889
0.328105
0.369935
0.333333
0.219608
0.31634
0.330719
0.296732
0.355556
0.368627
0.350327
0.31634
0.324183
0.338562
0.334641
0.271895
0.329412
0.401307
0.36732
0.296732
0.150327
0.288889
0.337255
0.303268
0.359477
0.335948
0.401307
0.422222
0.359477
0.206536
0.304575
0.185621
0.440523
0.28366
0.141176
0.14902
0.34902
0.287582
0.335948
0.210458
0.286275
0.134641
0.206536
0.143791
0.145098
0.135948
0.196078
0.142484
0.213072
0.213072
0.142484
0.196078
0.142484
0.141176
0.142484
0.142484
0.249673
0.312418
0.179085
0.295425
0.130719
0.252288
0.128105
0.128105
0.129412
0.138562
0.137255
0.150327
0.137255
0.134641
0.345098
0.193464
0.194771
0.193464
0.30719
0.313725
0.184314
0.294118
0.321569
0.363399
0.321569
0.326797
0.356863
0.311111
0.273203
0.324183
0.134641
0.290196
0.34902
0.281046
0.132026
0.269281
0.411765
0.35817
0.484967
0.337255
0.377778
0.269281
0.318954
0.308497
0.359477
0.34902
0.311111
0.31634
0.300654
0.321569
0.415686
0.332026
0.411765
0.352941
0.334641
0.341176
0.413072
0.324183
0.346405
0.321569
0.305882
0.309804
0.321569
0.271895
0.298039
0.311111
0.343791
0.341176
0.363399
0.330719
0.311111
0.300654
0.342484
0.220915
0.291503
0.151634
0.303268
0.287582
0.270588
0.142484
0.328105
0.134641
0.322876
0.269281
0.281046
0.343791
0.129412
0.333333
0.28366
0.328105
0.215686
0.126797
0.359477
0.377778
0.264052
0.193464
0.333333
0.337255
0.381699
0.334641
0.339869
0.324183
0.355556
0.346405
0.318954
0.34902
0.30719
0.346405
0.372549
0.312418
0.330719
0.278431
0.397386
0.35817
0.351634
0.326797
0.30719
0.298039
0.304575
0.32549
0.32549
0.305882
0.28366
0.334641
0.312418
0.282353
0.291503
0.303268
0.275817
0.269281
0.317647
0.305882
0.295425
0.28366
0.281046
0.321569
0.313725
0.277124
0.277124
0.294118
0.32549
0.317647
0.312418
0.298039
0.326797
0.286275
0.273203
0.300654
0.326797
0.291503
0.290196
0.248366
0.303268
0.328105
0.315033
0.290196
0.296732
0.313725
0.335948
0.303268
0.305882
0.343791
0.28366
0.328105
0.324183
0.309804
0.328105
0.313725
0.308497
0.326797
0.266667
0.290196
0.288889
0.30719
0.277124
0.290196
0.326797
0.32549
0.308497
0.27451
0.281046
0.291503
0.338562
0.329412
0.304575
0.333333
0.322876
0.284967
0.303268
0.315033
0.300654
0.333333
0.27451
0.338562
0.294118
0.317647
0.275817
0.347712
0.281046
0.330719
0.31634
0.338562
0.335948
0.31634
0.355556
0.324183
0.334641
0.345098
0.294118
0.375163
0.328105
0.36732
0.288889
0.321569
0.27451
0.237908
0.311111
0.317647
0.273203
0.317647
0.299346
0.296732
0.29281
0.309804
0.320261
0.281046
0.28366
0.300654
0.273203
0.291503
0.295425
0.264052
0.324183
0.339869
0.284967
0.304575
0.329412
0.317647
0.25098
0.284967
0.295425
0.311111
0.271895
0.277124
0.30719
0.290196
0.288889
0.315033
0.311111
0.311111
0.270588
0.313725
0.308497
0.277124
0.279739
0.301961
0.281046
0.300654
0.278431
0.277124
0.317647
0.284967
0.282353
0.284967
0.290196
0.286275
0.326797
0.322876
0.279739
0.282353
0.30719
0.253595
0.245752
0.284967
0.243137
0.266667
0.311111
0.309804
0.311111
0.300654
0.330719
0.32549
0.40915
0.32549
0.324183
0.347712
0.298039
0.320261
0.312418
0.29281
0.233987
0.388235
0.304575
0.31634
0.311111
0.282353
0.321569
0.324183
0.339869
0.332026
0.342484
0.343791
0.372549
0.298039
0.186928
0.372549
0.40915
0.330719
0.150327
0.315033
0.186928
0.299346
0.189542
0.132026
0.138562
0.201307
0.135948
0.14902
0.14902
0.304575
0.213072
0.304575
0.288889
0.31634
0.372549
0.354248
0.32549
0.322876
0.359477
0.147712
0.147712
0.146405
0.146405
0.175163
0.189542
0.166013
0.23268
0.247059
0.147712
0.159477
0.156863
0.156863
0.295425
0.318954
0.175163
0.290196
0.313725
0.31634
0.354248
0.308497
0.337255
0.345098
0.322876
0.350327
0.342484
0.368627
0.308497
0.329412
0.312418
0.360784
0.295425
0.339869
0.303268
0.287582
0.309804
0.368627
0.406536
0.383007
0.296732
0.298039
0.271895
0.279739
0.288889
0.305882
0.317647
0.294118
0.304575
0.303268
0.291503
0.321569
0.315033
0.321569
0.312418
0.303268
0.311111
0.10719
0.320261
0.183007
0.301961
0.332026
0.321569
0.330719
0.333333
0.326797
0.32549
0.334641
0.304575
0.324183
0.34902
0.267974
0.269281
0.269281
0.335948
0.328105
0.311111
0.303268
0.253595
0.269281
0.175163
0.160784
0.188235
0.160784
0.162092
0.324183
0.313725
0.312418
0.230065
0.175163
0.249673
0.162092
0.160784
0.10719
0.175163
0.162092
0.160784
0.162092
0.112418
0.108497
0.115033
0.109804
0.109804
0.10719
0.109804
0.112418
0.109804
0.11634
0.105882
0.115033
0.108497
0.162092
0.163399
0.318954
0.324183
0.181699
0.252288
0.313725
0.313725
0.257516
0.179085
0.247059
0.244444
0.25098
0.317647
0.330719
0.326797
0.189542
0.318954
0.333333
0.264052
0.337255
0.350327
0.317647
0.260131
0.321569
0.320261
0.339869
0.332026
0.304575
0.261438
0.32549
0.258824
0.318954
0.179085
0.317647
0.320261
0.303268
0.320261
0.296732
0.320261
0.253595
0.295425
0.299346
0.317647
0.318954
0.286275
0.330719
0.328105
0.278431
0.231373
0.330719
0.313725
0.317647
0.303268
0.27451
0.31634
0.257516
0.281046
0.313725
0.321569
0.286275
0.305882
0.271895
0.32549
0.295425
0.309804
0.298039
0.295425
0.294118
0.286275
0.301961
0.295425
0.284967
0.341176
0.256209
0.35817
0.27451
0.332026
0.290196
0.364706
0.31634
0.31634
0.309804
0.311111
0.312418
0.290196
0.318954
0.346405
0.304575
0.313725
0.329412
0.322876
0.284967
0.333333
0.290196
0.345098
0.369935
0.321569
0.32549
0.324183
0.345098
0.371242
0.332026
0.294118
0.329412
0.300654
0.301961
0.347712
0.30719
0.19085
0.257516
0.258824
0.335948
0.355556
0.180392
0.34902
0.169935
0.156863
0.360784
0.236601
0.23268
0.236601
0.181699
0.295425
0.320261
0.24183
0.320261
0.312418
0.312418
0.25098
0.31634
0.216993
0.247059
0.312418
0.317647
0.335948
0.312418
0.312418
0.335948
0.315033
0.31634
0.312418
0.326797
0.315033
0.166013
0.192157
0.313725
0.192157
0.31634
0.273203
0.303268
0.320261
0.194771
0.296732
0.308497
0.328105
0.345098
0.352941
0.355556
0.368627
0.313725
0.309804
0.313725
0.299346
0.318954
0.305882
0.311111
0.345098
0.332026
0.320261
0.318954
0.313725
0.32549
0.317647
0.322876
0.286275
0.329412
0.324183
0.337255
0.317647
0.31634
0.29281
0.308497
0.318954
0.328105
0.295425
0.291503
0.309804
0.320261
0.300654
0.318954
0.309804
0.301961
0.311111
0.318954
0.345098
0.298039
0.309804
0.30719
0.304575
0.299346
0.301961
0.30719
0.299346
0.301961
0.303268
0.312418
0.304575
0.309804
0.320261
0.305882
0.318954
0.305882
0.329412
0.329412
0.335948
0.304575
0.29281
0.227451
0.290196
0.281046
0.301961
0.301961
0.308497
0.308497
0.324183
0.305882
0.31634
0.303268
0.298039
0.324183
0.294118
0.28366
0.277124
0.347712
0.308497
0.301961
0.330719
0.32549
0.350327
0.332026
0.329412
0.330719
0.346405
0.317647
0.295425
0.299346
0.318954
0.334641
0.338562
0.301961
0.313725
0.30719
0.300654
0.296732
0.301961
0.326797
0.309804
0.305882
0.303268
0.296732
0.313725
0.304575
0.303268
0.296732
0.334641
0.309804
0.320261
0.291503
0.198693
0.312418
0.223529
0.318954
0.253595
0.179085
0.159477
0.247059
0.27451
0.278431
0.286275
0.303268
0.317647
0.30719
0.304575
0.328105
0.31634
0.311111
0.227451
0.324183
0.312418
0.303268
0.318954
0.184314
0.301961
0.202614
0.248366
0.245752
0.31634
0.20915
0.31634
0.236601
0.342484
0.254902
0.279739
0.188235
0.202614
0.318954
0.350327
0.322876
0.31634
0.301961
0.329412
0.334641
0.304575
0.326797
0.31634
0.321569
0.312418
0.318954
0.321569
0.317647
0.335948
0.326797
0.322876
0.31634
0.322876
0.322876
0.31634
0.321569
0.337255
0.304575
0.338562
0.338562
0.329412
0.333333
0.332026
0.312418
0.313725
0.309804
0.312418
0.312418
0.318954
0.305882
0.299346
0.30719
0.31634
0.352941
0.326797
0.330719
0.313725
0.326797
0.321569
0.312418
0.313725
0.31634
0.309804
0.330719
0.342484
0.375163
0.337255
0.342484
0.396078
0.341176
0.337255
0.321569
0.308497
0.335948
0.32549
0.324183
0.354248
0.354248
0.343791
0.347712
0.333333
0.351634
0.192157
0.355556
0.338562
0.315033
0.207843
0.286275
0.286275
0.192157
0.320261
0.146405
0.256209
0.196078
0.335948
0.28366
0.287582
0.134641
0.214379
0.320261
0.308497
0.224837
0.184314
0.330719
0.321569
0.356863
0.288889
0.355556
0.355556
0.345098
0.356863
0.262745
0.342484
0.324183
0.34902
0.345098
0.296732
0.247059
0.328105
0.375163
0.532026
0.36732
0.248366
0.300654
0.253595
0.343791
0.183007
0.185621
0.337255
0.211765
0.334641
0.198693
0.300654
0.356863
0.355556
0.295425
0.401307
0.308497
0.362092
0.282353
0.296732
0.313725
0.343791
0.32549
0.301961
0.376471
0.31634
0.301961
0.20915
0.350327
0.247059
0.181699
0.2
0.30719
0.320261
0.262745
0.291503
0.308497
0.328105
0.311111
0.194771
0.342484
0.339869
0.339869
0.356863
0.303268
0.355556
0.330719
0.296732
0.303268
0.313725
0.308497
0.313725
0.296732
0.30719
0.334641
0.32549
0.329412
0.298039
0.315033
0.324183
0.304575
0.301961
0.296732
0.296732
0.315033
0.315033
0.315033
0.309804
0.301961
0.303268
0.308497
0.308497
0.312418
0.299346
0.309804
0.299346
0.320261
0.300654
0.304575
0.295425
0.309804
0.31634
0.312418
0.337255
0.304575
0.352941
0.305882
0.317647
0.311111
0.312418
0.315033
0.296732
0.304575
0.296732
0.30719
0.309804
0.312418
0.304575
0.304575
0.180392
0.29281
0.210458
0.295425
0.317647
0.322876
0.287582
0.286275
0.32549
0.185621
0.184314
0.181699
0.183007
0.248366
0.12549
0.130719
0.247059
0.130719
0.345098
0.337255
0.366013
0.352941
0.189542
0.188235
0.203922
0.202614
0.129412
0.135948
0.130719
0.130719
0.137255
