# vtk DataFile Version 1.0
Unstructured Grid Example
ASCII

DATASET UNSTRUCTURED_GRID
POINTS 5774 float
203 365 0
204 365 0
205 365 0
206 365 0
207 365 0
208 365 0
209 365 0
210 365 0
211 365 0
212 365 0
213 365 0
214 365 0
215 365 0
216 365 0
217 365 0
218 365 0
219 365 0
220 365 0
221 365 0
222 365 0
223 365 0
224 365 0
200 364 0
201 364 0
202 364 0
203 364 0
204 364 0
214 364 0
215 364 0
224 364 0
225 364 0
226 364 0
227 364 0
228 364 0
229 364 0
193 363 0
194 363 0
195 363 0
196 363 0
197 363 0
198 363 0
199 363 0
200 363 0
229 363 0
230 363 0
231 363 0
232 363 0
233 363 0
234 363 0
235 363 0
236 363 0
237 363 0
190 362 0
191 362 0
192 362 0
193 362 0
237 362 0
238 362 0
239 362 0
240 362 0
187 361 0
188 361 0
189 361 0
190 361 0
240 361 0
241 361 0
242 361 0
243 361 0
244 361 0
186 360 0
187 360 0
205 360 0
206 360 0
207 360 0
208 360 0
209 360 0
210 360 0
211 360 0
212 360 0
213 360 0
214 360 0
215 360 0
216 360 0
217 360 0
218 360 0
219 360 0
220 360 0
221 360 0
244 360 0
245 360 0
246 360 0
247 360 0
183 359 0
184 359 0
185 359 0
186 359 0
203 359 0
204 359 0
205 359 0
221 359 0
223 359 0
224 359 0
228 359 0
229 359 0
230 359 0
231 359 0
232 359 0
246 359 0
247 359 0
248 359 0
249 359 0
180 358 0
181 358 0
182 358 0
183 358 0
194 358 0
195 358 0
196 358 0
197 358 0
198 358 0
199 358 0
200 358 0
201 358 0
202 358 0
203 358 0
221 358 0
222 358 0
223 358 0
224 358 0
225 358 0
226 358 0
227 358 0
228 358 0
232 358 0
233 358 0
234 358 0
235 358 0
236 358 0
249 358 0
250 358 0
178 357 0
179 357 0
180 357 0
193 357 0
194 357 0
196 357 0
197 357 0
198 357 0
199 357 0
208 357 0
209 357 0
210 357 0
211 357 0
219 357 0
220 357 0
221 357 0
222 357 0
236 357 0
250 357 0
251 357 0
176 356 0
177 356 0
178 356 0
190 356 0
191 356 0
192 356 0
193 356 0
196 356 0
197 356 0
198 356 0
199 356 0
203 356 0
204 356 0
205 356 0
206 356 0
207 356 0
208 356 0
211 356 0
219 356 0
221 356 0
222 356 0
236 356 0
237 356 0
251 356 0
252 356 0
253 356 0
254 356 0
175 355 0
176 355 0
190 355 0
191 355 0
197 355 0
198 355 0
199 355 0
203 355 0
204 355 0
205 355 0
206 355 0
207 355 0
209 355 0
210 355 0
211 355 0
219 355 0
220 355 0
221 355 0
237 355 0
238 355 0
239 355 0
240 355 0
241 355 0
242 355 0
254 355 0
255 355 0
171 354 0
172 354 0
173 354 0
174 354 0
175 354 0
185 354 0
186 354 0
187 354 0
188 354 0
189 354 0
190 354 0
191 354 0
206 354 0
207 354 0
208 354 0
209 354 0
219 354 0
220 354 0
241 354 0
242 354 0
243 354 0
245 354 0
246 354 0
247 354 0
255 354 0
256 354 0
257 354 0
258 354 0
166 353 0
167 353 0
168 353 0
169 353 0
170 353 0
171 353 0
182 353 0
183 353 0
184 353 0
185 353 0
243 353 0
244 353 0
245 353 0
247 353 0
248 353 0
249 353 0
257 353 0
258 353 0
259 353 0
162 352 0
163 352 0
164 352 0
165 352 0
166 352 0
180 352 0
181 352 0
182 352 0
249 352 0
250 352 0
259 352 0
260 352 0
261 352 0
262 352 0
160 351 0
161 351 0
162 351 0
177 351 0
178 351 0
179 351 0
180 351 0
239 351 0
240 351 0
241 351 0
242 351 0
250 351 0
251 351 0
252 351 0
262 351 0
263 351 0
264 351 0
160 350 0
161 350 0
176 350 0
177 350 0
238 350 0
239 350 0
242 350 0
249 350 0
250 350 0
251 350 0
252 350 0
253 350 0
264 350 0
265 350 0
158 349 0
159 349 0
160 349 0
161 349 0
176 349 0
238 349 0
242 349 0
243 349 0
248 349 0
249 349 0
251 349 0
252 349 0
253 349 0
265 349 0
266 349 0
267 349 0
156 348 0
157 348 0
158 348 0
175 348 0
176 348 0
237 348 0
238 348 0
242 348 0
243 348 0
247 348 0
248 348 0
266 348 0
267 348 0
268 348 0
152 347 0
153 347 0
154 347 0
155 347 0
156 347 0
172 347 0
173 347 0
174 347 0
175 347 0
237 347 0
241 347 0
242 347 0
247 347 0
268 347 0
269 347 0
270 347 0
271 347 0
151 346 0
152 346 0
171 346 0
172 346 0
173 346 0
237 346 0
240 346 0
241 346 0
247 346 0
248 346 0
259 346 0
260 346 0
261 346 0
271 346 0
272 346 0
273 346 0
151 345 0
170 345 0
171 345 0
237 345 0
238 345 0
239 345 0
240 345 0
248 345 0
249 345 0
258 345 0
259 345 0
261 345 0
262 345 0
263 345 0
273 345 0
274 345 0
275 345 0
150 344 0
151 344 0
162 344 0
163 344 0
164 344 0
165 344 0
166 344 0
169 344 0
170 344 0
249 344 0
258 344 0
259 344 0
263 344 0
264 344 0
265 344 0
275 344 0
276 344 0
142 343 0
143 343 0
144 343 0
146 343 0
147 343 0
148 343 0
149 343 0
150 343 0
161 343 0
162 343 0
166 343 0
167 343 0
168 343 0
169 343 0
249 343 0
251 343 0
252 343 0
253 343 0
254 343 0
259 343 0
265 343 0
266 343 0
267 343 0
276 343 0
277 343 0
141 342 0
142 342 0
144 342 0
145 342 0
146 342 0
158 342 0
159 342 0
160 342 0
161 342 0
249 342 0
250 342 0
251 342 0
254 342 0
255 342 0
258 342 0
259 342 0
261 342 0
262 342 0
263 342 0
267 342 0
268 342 0
269 342 0
270 342 0
277 342 0
278 342 0
140 341 0
141 341 0
157 341 0
158 341 0
249 341 0
250 341 0
255 341 0
256 341 0
257 341 0
258 341 0
260 341 0
261 341 0
263 341 0
264 341 0
270 341 0
271 341 0
272 341 0
278 341 0
279 341 0
139 340 0
140 340 0
156 340 0
157 340 0
256 340 0
257 340 0
258 340 0
260 340 0
264 340 0
265 340 0
272 340 0
273 340 0
274 340 0
279 340 0
280 340 0
138 339 0
139 339 0
153 339 0
154 339 0
155 339 0
156 339 0
259 339 0
260 339 0
264 339 0
265 339 0
269 339 0
270 339 0
274 339 0
275 339 0
280 339 0
281 339 0
282 339 0
137 338 0
138 338 0
150 338 0
151 338 0
152 338 0
153 338 0
259 338 0
263 338 0
264 338 0
269 338 0
270 338 0
271 338 0
272 338 0
275 338 0
276 338 0
282 338 0
283 338 0
133 337 0
134 337 0
135 337 0
136 337 0
137 337 0
149 337 0
150 337 0
259 337 0
260 337 0
261 337 0
262 337 0
263 337 0
269 337 0
270 337 0
271 337 0
272 337 0
276 337 0
277 337 0
283 337 0
284 337 0
132 336 0
133 336 0
134 336 0
147 336 0
148 336 0
149 336 0
270 336 0
271 336 0
272 336 0
277 336 0
284 336 0
285 336 0
131 335 0
132 335 0
146 335 0
147 335 0
277 335 0
285 335 0
286 335 0
130 334 0
131 334 0
145 334 0
146 334 0
271 334 0
272 334 0
273 334 0
274 334 0
275 334 0
276 334 0
277 334 0
286 334 0
287 334 0
127 333 0
128 333 0
129 333 0
130 333 0
144 333 0
145 333 0
209 333 0
210 333 0
211 333 0
271 333 0
272 333 0
287 333 0
288 333 0
126 332 0
127 332 0
143 332 0
144 332 0
209 332 0
210 332 0
211 332 0
271 332 0
272 332 0
288 332 0
289 332 0
290 332 0
125 331 0
126 331 0
142 331 0
143 331 0
204 331 0
205 331 0
206 331 0
210 331 0
211 331 0
272 331 0
273 331 0
274 331 0
275 331 0
276 331 0
289 331 0
290 331 0
291 331 0
123 330 0
124 330 0
125 330 0
139 330 0
140 330 0
141 330 0
142 330 0
143 330 0
204 330 0
205 330 0
206 330 0
276 330 0
277 330 0
278 330 0
279 330 0
280 330 0
291 330 0
292 330 0
293 330 0
294 330 0
121 329 0
122 329 0
123 329 0
137 329 0
138 329 0
139 329 0
277 329 0
278 329 0
280 329 0
281 329 0
294 329 0
295 329 0
120 328 0
121 328 0
136 328 0
137 328 0
281 328 0
282 328 0
283 328 0
284 328 0
295 328 0
296 328 0
297 328 0
119 327 0
120 327 0
135 327 0
136 327 0
284 327 0
285 327 0
297 327 0
298 327 0
116 326 0
117 326 0
118 326 0
119 326 0
134 326 0
135 326 0
285 326 0
286 326 0
298 326 0
299 326 0
115 325 0
116 325 0
132 325 0
133 325 0
134 325 0
286 325 0
287 325 0
299 325 0
300 325 0
114 324 0
115 324 0
132 324 0
287 324 0
288 324 0
289 324 0
290 324 0
291 324 0
300 324 0
301 324 0
113 323 0
114 323 0
132 323 0
289 323 0
290 323 0
291 323 0
292 323 0
301 323 0
302 323 0
113 322 0
132 322 0
292 322 0
302 322 0
112 321 0
113 321 0
130 321 0
131 321 0
132 321 0
292 321 0
302 321 0
303 321 0
111 320 0
112 320 0
129 320 0
130 320 0
291 320 0
292 320 0
303 320 0
304 320 0
111 319 0
112 319 0
128 319 0
129 319 0
290 319 0
291 319 0
304 319 0
305 319 0
111 318 0
112 318 0
127 318 0
128 318 0
129 318 0
290 318 0
305 318 0
112 317 0
123 317 0
124 317 0
125 317 0
126 317 0
127 317 0
290 317 0
305 317 0
306 317 0
111 316 0
112 316 0
122 316 0
123 316 0
290 316 0
291 316 0
292 316 0
306 316 0
307 316 0
110 315 0
111 315 0
122 315 0
292 315 0
307 315 0
308 315 0
109 314 0
110 314 0
122 314 0
292 314 0
293 314 0
297 314 0
298 314 0
308 314 0
309 314 0
108 313 0
109 313 0
122 313 0
293 313 0
297 313 0
298 313 0
299 313 0
309 313 0
310 313 0
108 312 0
122 312 0
123 312 0
293 312 0
294 312 0
295 312 0
296 312 0
297 312 0
298 312 0
299 312 0
310 312 0
311 312 0
107 311 0
108 311 0
122 311 0
123 311 0
295 311 0
296 311 0
297 311 0
298 311 0
311 311 0
312 311 0
106 310 0
107 310 0
121 310 0
122 310 0
296 310 0
302 310 0
303 310 0
304 310 0
312 310 0
313 310 0
105 309 0
106 309 0
117 309 0
118 309 0
119 309 0
120 309 0
121 309 0
296 309 0
297 309 0
301 309 0
302 309 0
303 309 0
304 309 0
313 309 0
104 308 0
105 308 0
116 308 0
117 308 0
297 308 0
298 308 0
300 308 0
301 308 0
302 308 0
303 308 0
313 308 0
314 308 0
104 307 0
105 307 0
116 307 0
117 307 0
298 307 0
299 307 0
300 307 0
302 307 0
303 307 0
314 307 0
104 306 0
105 306 0
116 306 0
299 306 0
300 306 0
302 306 0
314 306 0
315 306 0
104 305 0
115 305 0
116 305 0
302 305 0
315 305 0
103 304 0
104 304 0
115 304 0
302 304 0
303 304 0
304 304 0
305 304 0
306 304 0
315 304 0
316 304 0
103 303 0
111 303 0
112 303 0
115 303 0
116 303 0
306 303 0
307 303 0
316 303 0
317 303 0
102 302 0
103 302 0
109 302 0
110 302 0
111 302 0
112 302 0
113 302 0
114 302 0
116 302 0
117 302 0
307 302 0
317 302 0
102 301 0
108 301 0
109 301 0
114 301 0
115 301 0
117 301 0
118 301 0
305 301 0
306 301 0
307 301 0
317 301 0
101 300 0
102 300 0
108 300 0
115 300 0
116 300 0
117 300 0
118 300 0
305 300 0
306 300 0
317 300 0
318 300 0
101 299 0
108 299 0
305 299 0
318 299 0
319 299 0
101 298 0
108 298 0
304 298 0
305 298 0
319 298 0
320 298 0
100 297 0
101 297 0
108 297 0
304 297 0
320 297 0
321 297 0
100 296 0
108 296 0
109 296 0
304 296 0
321 296 0
100 295 0
109 295 0
304 295 0
305 295 0
321 295 0
322 295 0
99 294 0
100 294 0
109 294 0
110 294 0
228 294 0
229 294 0
305 294 0
306 294 0
307 294 0
322 294 0
99 293 0
100 293 0
110 293 0
228 293 0
229 293 0
230 293 0
306 293 0
307 293 0
322 293 0
98 292 0
99 292 0
106 292 0
107 292 0
110 292 0
228 292 0
230 292 0
307 292 0
322 292 0
97 291 0
98 291 0
105 291 0
106 291 0
107 291 0
110 291 0
111 291 0
228 291 0
229 291 0
230 291 0
307 291 0
308 291 0
309 291 0
321 291 0
322 291 0
96 290 0
97 290 0
104 290 0
105 290 0
107 290 0
[...]
CELL_DATA 5774
COLOR_SCALARS lut 1
0.2688
0.266504
0.264363
0.262358
0.260469
0.25867
0.256947
0.255295
0.253708
0.252168
0.250638
0.249068
0.247415
0.245663
0.243831
0.241959
0.240098
0.238306
0.236655
0.235239
0.234142
0.233408
0.264788
0.262274
0.259931
0.257754
0.255735
0.239877
0.238296
0.224125
0.223554
0.223291
0.223348
0.223743
0.224491
0.274588
0.271369
0.268281
0.265326
0.262511
0.259841
0.257328
0.254974
0.215826
0.216411
0.217327
0.218589
0.220211
0.222199
0.224549
0.227227
0.230187
0.273172
0.270086
0.267114
0.264249
0.218026
0.220488
0.223201
0.226176
0.271687
0.268824
0.266094
0.263472
0.213581
0.216168
0.219179
0.22273
0.226969
0.264696
0.262357
0.233964
0.2332
0.232419
0.231582
0.230686
0.229747
0.228791
0.227823
0.226817
0.225724
0.224498
0.223116
0.221593
0.219963
0.218271
0.216553
0.214837
0.213281
0.217671
0.222972
0.229224
0.263185
0.260782
0.258748
0.256963
0.235699
0.235101
0.234566
0.217215
0.213771
0.212073
0.204873
0.202958
0.201051
0.199196
0.197447
0.209417
0.214945
0.221404
0.22874
0.262844
0.259926
0.257443
0.255436
0.245073
0.244165
0.243226
0.242274
0.24134
0.240462
0.239677
0.239001
0.23844
0.237994
0.221722
0.219921
0.218077
0.216173
0.214169
0.212034
0.209752
0.207328
0.196933
0.194457
0.192184
0.190196
0.188551
0.214364
0.221724
0.259696
0.257085
0.25475
0.247382
0.246954
0.245865
0.245232
0.244585
0.24397
0.241625
0.24119
0.240666
0.240091
0.231692
0.230023
0.228248
0.226369
0.185949
0.207939
0.215252
0.256049
0.253952
0.252075
0.250526
0.250882
0.251123
0.251238
0.250834
0.250484
0.250087
0.249695
0.24894
0.248993
0.249085
0.249147
0.249115
0.248943
0.247773
0.24011
0.23665
0.234682
0.18487
0.181732
0.202049
0.209275
0.217198
0.225792
0.250324
0.248934
0.255296
0.25619
0.257954
0.257761
0.257548
0.257378
0.257568
0.257794
0.257985
0.258074
0.257816
0.257516
0.257163
0.250236
0.248593
0.246752
0.181152
0.177575
0.174502
0.17194
0.169916
0.168474
0.211543
0.219949
0.249675
0.247918
0.246512
0.245464
0.244744
0.25297
0.255079
0.257132
0.259074
0.260864
0.26247
0.263868
0.268461
0.268635
0.26866
0.268544
0.261868
0.260234
0.167386
0.165194
0.163656
0.162794
0.163573
0.165201
0.206279
0.214407
0.223002
0.231971
0.249618
0.247927
0.246412
0.245015
0.243752
0.242706
0.251127
0.253653
0.25642
0.259297
0.161022
0.159476
0.158692
0.159555
0.161234
0.163726
0.20906
0.217191
0.225663
0.245186
0.243344
0.241855
0.240683
0.239808
0.251461
0.254273
0.25739
0.157886
0.160352
0.211479
0.219498
0.227942
0.236897
0.236578
0.23476
0.233477
0.248625
0.251634
0.254861
0.25832
0.178086
0.172516
0.167585
0.163301
0.155128
0.157541
0.160663
0.221815
0.230624
0.240135
0.22511
0.224256
0.251285
0.255022
0.188716
0.181845
0.16518
0.150452
0.151351
0.152976
0.155297
0.158275
0.224998
0.234507
0.217676
0.216385
0.215835
0.215969
0.258999
0.194247
0.168374
0.163537
0.149541
0.148938
0.14992
0.151445
0.15361
0.220068
0.229519
0.23963
0.211768
0.209838
0.208712
0.263489
0.268865
0.209732
0.201008
0.172992
0.167596
0.1524
0.150327
0.215789
0.225059
0.234888
0.215148
0.210971
0.207575
0.204969
0.203166
0.256902
0.262567
0.268432
0.274502
0.218334
0.185675
0.179147
0.155524
0.221033
0.230497
0.240461
0.250941
0.209064
0.20504
0.26066
0.267155
0.273777
0.228321
0.201538
0.193934
0.160341
0.156855
0.158201
0.161387
0.165118
0.236095
0.246253
0.257001
0.200261
0.264633
0.272032
0.239787
0.229813
0.220529
0.211899
0.162741
0.159211
0.153327
0.155191
0.160529
0.164069
0.168231
0.242099
0.252629
0.26385
0.196645
0.193756
0.214777
0.221269
0.228327
0.235868
0.243804
0.268783
0.277147
0.166227
0.153042
0.154098
0.163997
0.168003
0.17264
0.24896
0.260085
0.230792
0.223739
0.217332
0.206297
0.201639
0.197593
0.194204
0.191528
0.214609
0.221465
0.254567
0.263785
0.273132
0.282479
0.175168
0.167026
0.163789
0.161062
0.158827
0.155016
0.168764
0.17312
0.177981
0.246098
0.257187
0.227147
0.22037
0.208836
0.203985
0.199708
0.203637
0.209196
0.215562
0.222698
0.186075
0.181001
0.176476
0.165906
0.163335
0.158563
0.158021
0.15865
0.159843
0.161628
0.174384
0.178768
0.183595
0.188903
0.244123
0.255227
0.224395
0.217924
0.20543
0.211146
0.198966
0.193204
0.1717
0.168799
0.166393
0.164507
0.162415
0.162238
0.163631
0.165187
0.184498
0.189345
0.194786
0.243073
0.254207
0.222378
0.216259
0.208469
0.214325
0.178496
0.175296
0.172621
0.168966
0.16854
0.169784
0.19044
0.195525
0.201331
0.242899
0.254038
0.220934
0.215207
0.203221
0.20757
0.212734
0.218722
0.180008
0.177696
0.174066
0.174444
0.179695
0.181972
0.196959
0.202505
0.243475
0.254547
0.266579
0.219936
0.214617
0.201754
0.204694
0.2084
0.212899
0.191655
0.182686
0.181746
0.182595
0.183826
0.185557
0.187875
0.199051
0.204358
0.255487
0.2673
0.23998
0.232046
0.225157
0.219283
0.21437
0.207665
0.210852
0.205396
0.201576
0.198308
0.195569
0.193327
0.18755
0.187715
0.188369
0.189602
0.201724
0.206798
0.256581
0.268069
0.238706
0.231044
0.224438
0.21162
0.214533
0.218044
0.193584
0.193142
0.193269
0.204854
0.25757
0.268651
0.237601
0.230257
0.218718
0.222147
0.204632
0.25824
0.268875
0.236476
0.229541
0.226137
0.230221
0.208218
0.206083
0.204582
0.203787
0.203748
0.204494
0.206054
0.25846
0.268654
0.249795
0.242206
0.235131
0.228717
0.233505
0.238388
0.419024
0.421312
0.425401
0.218332
0.215055
0.2582
0.267991
0.24654
0.239731
0.240437
0.246257
0.423375
0.425864
0.430228
0.230084
0.225668
0.257524
0.266985
0.277444
0.24296
0.236843
0.24659
0.25345
0.446732
0.439335
0.433833
0.432238
0.436835
0.237933
0.232956
0.228623
0.224982
0.222048
0.256578
0.265799
0.276072
0.245445
0.239251
0.233703
0.237075
0.244146
0.25171
0.259652
0.26787
0.454946
0.447446
0.441896
0.231212
0.2277
0.224867
0.222722
0.221307
0.264627
0.274822
0.286122
0.298507
0.24823
0.241518
0.235639
0.232195
0.239283
0.247161
0.237277
0.233079
0.226657
0.224544
0.285217
0.297641
0.244623
0.238023
0.233111
0.240654
0.230068
0.227248
0.225265
0.224157
0.284706
0.297125
0.310496
0.241667
0.235097
0.233607
0.241407
0.226741
0.225049
0.29683
0.310045
0.255803
0.24707
0.239426
0.232827
0.233938
0.241807
0.22769
0.225525
0.29657
0.309541
0.25464
0.245689
0.227853
0.234323
0.242117
0.228219
0.225735
0.296143
0.308794
0.254471
0.245172
0.234909
0.228489
0.225851
0.224602
0.224792
0.226436
0.295349
0.307631
0.255362
0.245587
0.24324
0.226038
0.224888
0.225237
0.227061
0.294032
0.305934
0.246977
0.252828
0.226014
0.292133
0.249352
0.239874
0.245424
0.253932
0.263666
0.226315
0.279527
0.289733
0.252692
0.242522
0.24674
0.255263
0.22991
0.227896
0.27705
0.287031
0.246004
0.23671
0.247984
0.256648
0.238882
0.234019
0.274391
0.284298
0.240185
0.231762
0.248951
0.25786
0.267717
0.245537
0.27185
0.227526
0.22745
0.233833
0.241186
0.249473
0.258681
0.253525
0.26098
0.269733
0.230567
0.223878
0.227003
0.233437
0.26296
0.25429
0.247178
0.259343
0.268316
0.233968
0.226568
0.23267
0.255686
0.258542
0.26781
0.237773
0.22959
0.239067
0.26587
0.257701
0.237021
0.234151
0.258746
0.268378
0.242126
0.233061
0.246199
0.268336
0.242433
0.238278
0.234895
0.260096
0.270165
0.237185
0.254067
0.265098
0.280693
0.271267
0.263012
0.255798
0.249501
0.244038
0.239374
0.262719
0.273302
0.242213
0.232976
0.262665
0.274873
0.274385
0.26582
0.258177
0.251384
0.266722
0.277901
0.248382
0.238011
0.259957
0.271986
0.277356
0.236836
0.233779
0.232081
0.272167
0.284027
0.255844
0.244253
0.230319
0.237831
0.246767
0.257116
0.26887
0.290218
0.279836
0.247407
0.241939
0.237776
0.235037
0.27904
0.264652
0.251778
0.228861
0.235859
0.292403
0.281542
0.262632
0.254764
0.248129
0.242869
0.27545
0.287237
0.260562
0.248433
0.234149
0.242061
0.293601
0.282332
0.272088
0.255202
0.248855
0.283963
0.257053
0.245668
0.239993
0.293714
0.282206
0.262962
0.281574
0.293333
0.253991
0.238118
0.246307
0.271229
0.29074
0.263236
0.251286
0.24396
0.279854
0.270325
0.262564
0.256641
0.252568
0.288588
0.300264
0.260066
0.225784
0.229582
0.250217
0.260197
0.257685
0.254607
0.297528
0.309954
0.269608
0.257168
0.224811
0.22608
0.229064
0.233681
0.239872
0.247613
0.267784
0.280246
0.259108
0.306491
0.266138
0.226663
0.226904
0.253875
0.264059
0.289167
0.304088
0.275007
0.268392
0.263707
0.303133
0.275666
0.262872
0.228323
0.271639
0.284283
0.298499
0.314272
0.281292
0.273838
0.299828
0.311175
0.271668
0.230278
0.287604
0.307
0.319172
0.267752
0.232465
0.305162
0.293957
0.314176
0.327306
0.275931
0.263879
0.234819
0.312467
0.3216
0.335867
0.27112
0.237292
0.24167
0.319893
0.329617
0.266345
0.245087
0.327484
0.313597
0.323675
0.338644
0.272766
0.26166
0.24859
0.256497
0.629621
0.637776
0.320485
0.307678
0.296866
0.332507
0.267253
0.257141
0.260912
0.620001
0.628696
0.639388
0.313859
0.302068
0.326862
0.273078
0.261994
0.23839
0.242424
0.265445
0.612234
0.632747
0.307536
0.321731
0.279213
0.267167
0.236878
0.239954
0.244816
0.270139
0.282118
0.60641
0.616319
0.628113
0.313313
0.301468
0.291534
0.304238
0.317108
0.285744
0.272735
0.235775
0.237928
0.247514
0.287699
0.302034
0.306586
0.295663
0.286633
0.279447
0.300553
0.312965
0.278792
0.236373
0.239384
0.244126
0.250584
0.308461
0.324989
0.282088
0.297312
0.272392
0.254098
0.263
0.273566
0.285793
0.29967
0.315165
0.332216
0.350749
0.285112
0.294495
0.305994
0.266594
0.236055
0.239061
0.243764
0.250125
0.258116
0.306214
0.32222
0.339742
0.358706
0.818213
0.808689
0.800635
0.288502
0.276543
0.283269
0.292081
0.303109
0.272666
0.261433
0.235195
0.237352
0.811103
0.793184
0.292207
0.283488
0.275429
0.281693
0.300576
0.293932
0.279604
0.267267
0.236148
0.23919
0.805997
0.796252
0.787818
0.286637
0.298347
0.310699
0.28753
0.241505
0.247077
0.289956
0.281789
0.308214
0.296584
0.281805
0.235214
0.236429
0.239451
0.250572
0.475229
0.481472
0.48834
0.49574
0.503617
0.995946
0.980668
0.966206
0.952732
0.940409
0.929377
0.919737
0.284501
0.277781
0.305918
0.290764
0.235569
0.235724
0.241597
0.247132
0.254268
0.469465
0.476709
0.484576
0.492972
0.501838
0.996873
0.922564
0.279894
0.303741
0.316941
0.301028
0.285555
0.236604
0.23557
0.453237
0.444992
0.43867
1
0.985123
0.971151
0.95826
0.927539
0.920216
0.281938
0.314322
0.329448
0.312712
0.295727
0.236096
0.453366
0.443265
0.429013
0.964438
0.934696
0.927704
0.283847
0.326377
0.307359
0.290952
0.235737
0.457776
0.445749
0.421676
0.972843
0.961833
0.952195
0.944012
0.285602
0.323307
0.302534
0.286673
0.273021
0.261559
0.235429
0.452654
0.440572
0.430485
0.422506
0.416706
0.972696
0.963351
0.287228
0.320221
0.258796
0.235089
0.298739
0.288796
0.31711
0.256342
0.234642
0.313598
0.300855
0.313965
0.254135
0.234038
0.31639
0.298205
0.310781
0.261828
0.25213
0.233269
0.415956
0.417515
0.421161
0.319477
0.285717
0.295407
0.271172
0.259684
0.232357
0.422652
0.422038
0.42372
0.42752
0.322977
0.30865
0.296573
0.286755
0.28338
0.292626
0.26891
0.23135
0.430332
0.43543
0.326998
0.312099
0.288979
0.280751
0.281128
0.289901
0.279866
0.266852
0.230307
0.439451
0.438946
0.444647
0.291692
0.282787
0.287273
0.292603
0.27769
0.229295
0.231238
0.234893
0.449248
0.454902
0.294918
0.285288
0.284778
0.290309
0.230253
0.233792
0.460889
0.46041
0.462149
0.465917
0.298645
0.288246
0.282456
0.292174
0.288197
0.227647
0.229462
0.232904
0.475418
0.472654
0.473817
0.291624
0.280347
0.289514
0.301287
0.286244
0.227165
0.487488
0.484779
0.484257
0.485789
0.295356
0.285492
0.298325
0.28441
0.227014
0.497025
0.496453
0.288658
0.280145
0.295616
0.282645
0.269223
0.227262
0.229226
0.259698
0.269148
0.27954
0.290884
0.34652
0.363054
0.282678
0.275599
0.293148
0.267823
0.230139
0.233796
0.238848
0.252656
0.261173
0.28104
0.292374
0.347876
0.364335
0.277477
0.290877
0.303184
0.266472
0.240855
0.247394
0.255049
0.263709
0.295179
0.279385
0.273211
0.288757
0.300548
0.314958
0.277508
0.265187
0.229574
0.230886
0.267292
0.277078
0.287732
0.299279
0.274451
0.270095
0.298015
0.31191
0.275906
0.264016
0.231135
0.231332
0.233099
0.236386
0.241106
0.247144
0.254368
0.262642
0.271852
0.281918
0.270717
0.28479
0.29554
0.308909
0.274447
0.23281
0.641907
0.644884
0.271275
0.282862
0.293085
0.286319
0.273177
0.2348
0.635583
0.641492
0.647551
0.631202
0.634571
0.27174
0.280937
0.299741
0.284794
0.272117
0.237012
0.6336
0.638721
0.644004
0.622235
0.626004
0.272094
0.279009
0.298008
0.239331
0.633368
0.637736
0.272334
0.268178
0.277096
0.296528
0.241617
0.487817
0.498943
0.512233
0.527603
0.267969
0.275218
0.295278
0.243725
0.477304
0.517259
0.272524
0.267724
0.273394
0.294216
0.243677
0.245519
0.468426
0.508519
0.280161
0.27256
0.271659
0.293281
0.24443
0.244769
0.448337
0.443049
0.461108
0.47237
0.485789
0.501284
0.29081
0.280462
0.27005
0.276588
0.307688
0.292407
0.244912
0.245431
0.441644
0.436435
0.466499
0.479921
0.291386
0.27462
0.28293
0.293533
0.306444
0.306653
0.245001
0.245625
0.305309
0.292093
0.30283
0.317433
0.305656
0.244703
0.24536
0.306389
0.299383
0.313366
0.304688
0.244054
0.244678
0.610934
0.602386
0.5947
0.307704
0.309505
0.303747
0.243106
0.602568
0.585755
0.578817
0.309265
0.3059
0.321103
0.302835
0.241921
0.595318
0.57074
0.327576
0.311039
0.296895
0.285194
0.31728
0.301957
0.24056
0.240789
0.252064
0.259327
0.268215
0.589178
0.579757
0.563802
0.348858
0.329779
0.298528
0.286519
0.313796
0.330489
0.301117
0.286233
0.239111
0.240858
0.244366
0.24964
0.265256
0.27537
0.571182
0.568953
0.568412
0.574452
0.565725
0.557996
0.351415
0.332067
0.30021
0.287872
0.310622
0.326932
0.285382
0.238831
0.242057
0.262017
0.271809
0.572814
0.569362
0.567484
0.353971
0.29422
0.307702
0.323678
0.28457
0.27192
0.244308
0.250648
0.258592
0.571226
0.567151
0.356447
0.336536
0.290348
0.279703
0.271419
0.291798
0.304975
0.32066
0.27109
0.23723
0.241535
0.570158
0.567512
0.566547
0.567298
0.33861
0.32056
0.304792
0.291389
0.271727
0.317819
0.270326
0.232524
0.234813
0.567289
0.566712
0.454916
0.450709
0.447242
0.322188
0.306072
0.271911
0.299918
0.315131
0.269626
0.230479
0.232449
0.447296
0.44287
0.439204
0.272017
0.264998
0.297592
0.312614
0.281991
0.268971
0.230175
0.376365
0.376756
0.378412
0.381464
0.386014
0.392129
0.399825
0.264756
0.25971
0.295451
0.310304
0.296904
0.281456
0.268337
0.228031
0.230974
0.399683
0.398425
0.397318
0.374353
0.373527
0.373763
0.395429
0.404208
0.259238
0.308238
0.325487
0.296446
0.280909
0.228736
0.232901
0.396837
0.395457
0.394337
0.393451
0.392762
0.372785
0.371838
0.400215
0.258865
0.306441
0.323556
0.295927
0.226798
0.230697
0.314385
0.328054
0.392172
0.391066
0.38979
0.389531
0.372558
0.371493
0.371389
0.372416
0.374697
0.378315
0.383307
0.397306
0.258644
0.262163
0.269224
0.304934
0.321918
0.295333
0.27967
0.266334
0.255199
0.225251
0.228948
0.309449
0.322658
0.336686
0.388652
0.387877
0.387476
0.387406
0.37262
0.37235
0.38289
0.388677
0.395647
0.264538
0.25864
0.25677
0.2615
0.268434
0.277708
0.289448
0.303738
0.294709
0.279016
0.265651
0.254493
0.222036
0.224199
0.305743
0.318533
0.332112
0.385774
0.385806
0.28424
0.273373
0.264947
0.256566
0.261178
0.267985
0.277125
0.29412
0.22159
0.22374
0.315894
0.329064
0.285196
0.261213
0.267896
0.276901
0.288361
0.302368
0.293618
0.27793
0.221719
0.223944
0.253049
0.26161
0.270865
0.286364
0.302236
0.27758
0.222457
0.224851
0.246627
0.254468
0.272264
0.28212
0.292628
0.287723
0.276477
0.302468
0.277386
0.26413
0.223809
0.249135
0.257131
0.265819
0.275119
0.285
0.295476
0.277906
0.269046
0.303019
0.264163
0.225751
0.269903
0.279382
0.426418
0.440108
0.453863
0.467535
0.480954
0.493958
0.506413
0.270515
0.290277
0.303811
0.264343
0.228215
0.430155
0.443376
0.507506
0.518954
0.529775
0.435978
0.441349
0.281087
0.272042
0.291284
0.264625
0.228605
0.231098
0.448985
0.461867
0.474675
0.532588
0.361069
0.359187
0.358328
0.426326
0.430338
0.282713
0.292305
0.27786
0.264953
0.231247
0.481826
0.49404
0.505853
0.517131
0.5278
0.537847
0.559005
0.55525
0.353967
0.351711
0.350527
0.350396
0.417354
0.420036
0.296108
0.284296
0.293245
0.306607
0.278059
0.232017
0.234001
0.560386
0.556265
0.344343
0.34276
0.3429
0.297794
0.285821
0.307401
0.278171
0.265495
0.23423
0.563179
0.558582
0.335297
0.336008
0.378837
0.383336
0.388153
0.71446
0.712058
0.709622
0.299457
0.308085
0.324007
0.265618
0.23633
0.327004
0.329872
0.380151
0.39034
0.709339
0.707757
0.704673
0.301126
0.28876
0.324616
0.265639
0.238267
0.367154
0.364934
0.319627
0.320092
0.321784
0.32463
0.382139
0.393044
0.703805
0.701689
0.302833
0.29024
0.325174
0.265581
0.237887
0.239999
0.357242
0.355253
0.314425
0.316818
0.384822
0.390517
0.396273
0.700424
0.700627
0.700774
0.700724
0.291768
0.273789
0.268616
0.30968
0.325709
0.265467
0.238482
0.239026
0.293359
0.282827
0.274887
0.269502
0.310153
0.277363
0.265302
0.23915
0.239954
0.375677
0.370259
0.365915
0.362474
0.382577
0.389583
0.284219
0.27603
0.270421
0.2971
0.310634
0.291556
0.277044
0.240654
0.367176
0.353701
0.351014
0.35965
0.365364
0.372083
0.379832
0.271374
0.297531
0.291103
0.241118
0.244329
0.360748
0.35508
0.347132
0.344493
0.338183
0.337971
0.337833
0.29909
0.29722
0.296531
0.297176
0.299245
0.340804
0.336565
0.344212
0.363723
0.278438
0.272357
0.297973
0.290605
0.241347
0.244695
0.350729
0.346241
0.342802
0.335099
0.33501
0.335261
0.299553
0.2969
0.298539
0.333155
0.328341
0.324538
0.330299
0.349344
0.27969
0.273367
0.298433
0.29005
0.275786
0.244786
0.250314
0.379957
0.369924
0.361343
0.333743
0.333876
0.334198
0.334611
0.298397
0.295956
0.298885
0.325898
0.316328
0.317996
0.323099
0.329363
0.336793
0.290205
0.280965
0.287808
0.298913
0.275242
0.263609
0.250235
0.37969
0.361055
0.298429
0.294968
0.295217
0.296959
0.319058
0.313459
0.308773
0.291734
0.288249
0.299408
0.263066
0.253971
0.249937
0.257664
0.380961
0.37096
0.362436
0.299645
0.297447
0.296513
0.297007
0.414568
0.43092
0.293205
0.299912
0.253418
0.257241
0.267048
0.433221
0.430156
0.40955
0.426196
0.443797
0.294575
0.284591
0.300445
0.261773
0.252801
0.266561
0.437334
0.433138
0.429249
0.425803
0.275882
0.276584
0.278331
0.406831
0.423792
0.441719
0.28561
0.301043
0.272357
0.261032
0.266054
0.277934
0.444585
0.439373
0.425287
0.271083
0.270919
0.273685
0.276807
0.406361
0.423658
0.441916
0.28648
0.278883
0.301734
0.271466
0.260252
0.242282
0.24793
0.277578
0.29144
0.448977
0.4429
0.43696
0.431343
0.426197
0.267045
0.267068
0.273774
0.300722
0.310662
0.279449
0.302531
0.270541
0.241949
0.247629
0.255469
0.291403
0.307199
0.323161
0.324695
0.327832
0.332588
0.355829
0.366034
0.377105
0.4481
0.441292
0.434791
0.263944
0.272033
0.300788
0.311204
0.279854
0.274903
0.291618
0.303441
0.269628
0.241853
0.247597
0.255506
0.265548
0.277654
0.291731
0.307671
0.332984
0.334774
0.343139
0.349688
0.357695
0.366995
0.388629
0.400484
0.261718
0.271474
0.280104
0.275158
0.292442
0.30447
0.268801
0.238389
0.242087
0.308653
0.326513
0.346887
0.344823
0.343998
0.346647
0.350292
0.35552
0.413923
0.260331
0.261404
0.271982
0.280216
0.293367
0.305628
0.268132
0.238881
0.310234
0.328294
0.359135
0.357478
0.357034
0.364288
0.369771
0.376767
0.417058
0.42915
0.25976
0.261275
0.264016
0.268044
0.273432
0.280217
0.294409
0.267682
0.237832
0.239759
0.373005
0.371826
0.393117
0.401721
0.411543
0.422379
0.433998
0.402002
0.395188
0.388333
0.381255
0.37382
0.280134
0.295584
0.267493
0.238902
0.241022
0.407907
0.400235
0.376628
0.368189
0.341676
0.332896
0.287425
0.279989
0.29691
0.267586
0.242644
0.247063
0.41613
0.372704
0.36344
0.344765
0.33563
0.295316
0.288613
0.282427
0.276803
0.271839
0.287037
0.298394
0.294681
0.280053
0.267959
0.249241
0.256091
0.426692
0.417384
0.369768
0.350114
0.340554
0.313991
0.305989
0.298472
0.279129
0.273953
0.296568
0.286581
0.300028
0.294908
0.280475
0.25881
0.268177
0.429511
0.419522
0.40947
0.399272
0.388921
0.37848
0.319754
0.311306
0.277282
0.272651
0.26905
0.295809
0.286068
0.290572
0.301792
0.295367
0.271409
0.28331
0.318436
0.309928
0.272781
0.270041
0.285501
0.292042
0.296009
0.274775
0.28701
0.403601
0.410262
0.318122
0.309483
0.301427
0.274224
0.27247
0.284883
0.293579
0.296809
0.28284
0.267886
0.278199
0.408447
0.416138
0.309608
0.301479
0.294189
0.276884
0.284227
0.285733
0.295163
0.297777
0.28392
0.272656
0.262705
0.271012
0.30197
0.294937
0.281906
0.280701
0.281225
0.283534
0.286922
0.274
0.265382
0.265553
0.435311
0.423935
0.302911
0.285643
0.28742
0.282802
0.288104
0.266959
0.268411
0.42344
0.412535