# vtk DataFile Version 1.0
Unstructured Grid Example
ASCII

DATASET UNSTRUCTURED_GRID
POINTS 1198 float
0 400 0
5 400 0
9 400 0
13 400 0
16 400 0
19 400 0
22 400 0
25 400 0
28 400 0
31 400 0
35 400 0
38 400 0
41 400 0
44 400 0
47 400 0
51 400 0
54 400 0
57 400 0
60 400 0
63 400 0
66 400 0
69 400 0
72 400 0
75 400 0
78 400 0
82 400 0
85 400 0
89 400 0
93 400 0
96 400 0
99 400 0
102 400 0
105 400 0
108 400 0
111 400 0
114 400 0
117 400 0
120 400 0
123 400 0
127 400 0
131 400 0
136 400 0
139 400 0
144 400 0
147 400 0
150 400 0
155 400 0
160 400 0
163 400 0
167 400 0
170 400 0
174 400 0
177 400 0
181 400 0
184 400 0
187 400 0
190 400 0
195 400 0
199 400 0
203 400 0
208 400 0
212 400 0
217 400 0
221 400 0
224 400 0
229 400 0
232 400 0
235 400 0
238 400 0
243 400 0
246 400 0
250 400 0
254 400 0
258 400 0
261 400 0
264 400 0
268 400 0
272 400 0
277 400 0
281 400 0
284 400 0
287 400 0
290 400 0
293 400 0
296 400 0
301 400 0
305 400 0
308 400 0
311 400 0
314 400 0
318 400 0
321 400 0
326 400 0
331 400 0
334 400 0
337 400 0
340 400 0
344 400 0
347 400 0
351 400 0
355 400 0
359 400 0
362 400 0
365 400 0
368 400 0
371 400 0
374 400 0
379 400 0
383 400 0
386 400 0
390 400 0
393 400 0
398 400 0
400 399 0
0 397 0
400 395 0
0 394 0
400 390 0
0 388 0
0 383 0
400 382 0
0 377 0
400 372 0
0 370 0
205 365 0
208 365 0
211 365 0
214 365 0
217 365 0
222 365 0
201 364 0
227 364 0
400 364 0
194 363 0
198 363 0
230 363 0
234 363 0
237 362 0
190 361 0
240 361 0
186 360 0
209 360 0
214 360 0
217 360 0
220 360 0
245 360 0
183 359 0
205 359 0
230 359 0
249 359 0
195 358 0
199 358 0
202 358 0
222 358 0
227 358 0
233 358 0
0 357 0
180 357 0
219 357 0
236 357 0
177 356 0
193 356 0
204 356 0
208 356 0
211 356 0
252 356 0
190 355 0
199 355 0
239 355 0
242 355 0
400 355 0
171 354 0
175 354 0
206 354 0
220 354 0
256 354 0
168 353 0
185 353 0
244 353 0
248 353 0
162 352 0
165 352 0
181 352 0
259 352 0
177 351 0
263 351 0
238 350 0
250 350 0
253 350 0
161 349 0
242 349 0
248 349 0
265 349 0
158 348 0
175 348 0
153 347 0
269 347 0
172 346 0
241 346 0
248 346 0
261 346 0
238 345 0
258 345 0
273 345 0
150 344 0
164 344 0
263 344 0
144 343 0
147 343 0
161 343 0
167 343 0
252 343 0
0 342 0
158 342 0
249 342 0
255 342 0
258 342 0
261 342 0
267 342 0
277 342 0
270 341 0
140 340 0
264 340 0
274 340 0
280 340 0
153 339 0
156 339 0
259 339 0
137 338 0
269 338 0
134 337 0
150 337 0
261 337 0
276 337 0
283 337 0
271 336 0
131 335 0
286 335 0
400 335 0
146 334 0
273 334 0
276 334 0
127 332 0
144 332 0
211 332 0
271 332 0
288 332 0
274 331 0
0 330 0
125 330 0
141 330 0
204 330 0
291 330 0
121 329 0
277 329 0
280 329 0
136 328 0
283 328 0
295 328 0
119 326 0
285 326 0
134 325 0
300 325 0
115 324 0
287 324 0
291 324 0
113 322 0
131 321 0
292 321 0
302 321 0
111 320 0
400 320 0
128 319 0
290 318 0
305 318 0
123 317 0
126 317 0
112 316 0
0 314 0
109 314 0
122 314 0
292 314 0
297 314 0
309 314 0
299 312 0
107 311 0
123 311 0
295 311 0
105 309 0
119 309 0
301 309 0
304 309 0
313 309 0
116 308 0
400 308 0
298 307 0
105 306 0
302 306 0
315 306 0
115 305 0
103 304 0
306 304 0
111 303 0
317 302 0
0 301 0
102 301 0
114 301 0
307 301 0
117 300 0
108 299 0
101 298 0
304 297 0
320 297 0
109 295 0
400 295 0
100 294 0
306 293 0
110 292 0
322 292 0
107 291 0
228 291 0
97 290 0
104 290 0
309 290 0
0 289 0
107 288 0
110 288 0
114 288 0
103 287 0
311 287 0
322 287 0
319 286 0
95 285 0
174 285 0
103 284 0
313 284 0
323 284 0
214 283 0
91 281 0
99 281 0
202 281 0
314 281 0
325 281 0
400 281 0
92 278 0
98 278 0
198 278 0
274 278 0
313 277 0
325 277 0
0 276 0
93 275 0
98 275 0
205 274 0
312 274 0
323 274 0
315 273 0
90 271 0
99 270 0
316 270 0
205 269 0
325 269 0
89 268 0
98 267 0
316 267 0
400 267 0
90 265 0
105 265 0
319 265 0
326 265 0
99 264 0
111 264 0
0 262 0
90 262 0
328 262 0
99 261 0
102 261 0
105 261 0
321 261 0
96 260 0
159 260 0
88 259 0
132 258 0
326 258 0
321 257 0
87 256 0
96 256 0
235 256 0
400 256 0
94 253 0
238 253 0
319 253 0
326 253 0
87 252 0
225 252 0
329 252 0
86 249 0
95 249 0
318 249 0
0 248 0
331 248 0
94 246 0
97 245 0
100 245 0
184 245 0
317 245 0
332 245 0
87 243 0
98 242 0
149 242 0
319 242 0
322 241 0
332 241 0
400 241 0
88 240 0
96 240 0
201 240 0
229 239 0
234 239 0
324 238 0
334 238 0
99 237 0
212 237 0
108 236 0
231 236 0
329 236 0
86 235 0
89 235 0
215 235 0
235 235 0
333 235 0
98 234 0
323 234 0
109 233 0
329 233 0
86 232 0
105 232 0
333 231 0
400 231 0
97 230 0
102 230 0
323 230 0
0 229 0
105 229 0
117 228 0
248 228 0
88 227 0
322 227 0
332 227 0
96 226 0
123 226 0
142 226 0
198 226 0
88 224 0
212 224 0
333 224 0
294 223 0
197 222 0
321 222 0
88 221 0
95 221 0
182 221 0
210 221 0
324 221 0
163 219 0
333 219 0
87 218 0
94 218 0
400 218 0
173 217 0
196 217 0
264 217 0
325 217 0
165 216 0
250 216 0
87 215 0
95 215 0
191 215 0
261 215 0
249 214 0
323 214 0
331 214 0
97 213 0
162 213 0
194 213 0
273 213 0
89 212 0
324 211 0
332 211 0
99 210 0
222 210 0
260 210 0
0 209 0
88 209 0
257 209 0
264 209 0
96 208 0
193 208 0
101 207 0
260 207 0
87 206 0
94 206 0
325 206 0
332 206 0
195 205 0
201 205 0
257 205 0
191 204 0
233 204 0
87 203 0
93 203 0
400 203 0
238 202 0
248 202 0
331 202 0
95 201 0
245 201 0
324 201 0
85 200 0
233 200 0
251 200 0
98 198 0
254 198 0
174 197 0
248 197 0
324 197 0
329 197 0
85 196 0
251 196 0
150 195 0
257 195 0
0 194 0
95 194 0
87 193 0
160 193 0
328 193 0
164 192 0
253 192 0
322 192 0
96 191 0
257 191 0
88 190 0
260 190 0
322 189 0
97 188 0
254 188 0
328 188 0
400 188 0
263 187 0
258 186 0
87 185 0
95 185 0
323 185 0
162 184 0
261 184 0
328 184 0
266 183 0
86 182 0
147 182 0
155 182 0
159 181 0
263 181 0
322 181 0
327 181 0
93 180 0
142 179 0
152 179 0
85 178 0
322 178 0
95 177 0
155 177 0
400 177 0
141 176 0
150 176 0
327 176 0
0 175 0
146 175 0
321 175 0
85 174 0
330 174 0
142 173 0
326 173 0
95 172 0
145 171 0
270 171 0
318 171 0
85 170 0
141 170 0
315 170 0
326 170 0
279 169 0
283 169 0
137 167 0
313 167 0
85 166 0
96 166 0
286 166 0
326 166 0
142 165 0
283 165 0
290 165 0
0 163 0
314 163 0
85 162 0
134 162 0
289 162 0
400 162 0
125 161 0
139 161 0
286 161 0
328 161 0
97 160 0
128 159 0
313 159 0
85 158 0
286 158 0
289 158 0
294 157 0
328 157 0
96 155 0
125 155 0
298 155 0
84 154 0
285 154 0
292 154 0
313 154 0
289 153 0
296 153 0
300 153 0
97 152 0
329 152 0
100 151 0
400 151 0
0 150 0
84 150 0
288 150 0
300 150 0
304 150 0
309 150 0
96 149 0
99 148 0
285 148 0
83 147 0
94 147 0
103 147 0
301 147 0
309 147 0
331 147 0
304 146 0
287 145 0
95 144 0
102 144 0
298 144 0
306 144 0
105 143 0
332 143 0
82 142 0
301 142 0
400 142 0
90 141 0
298 141 0
287 140 0
97 139 0
303 139 0
310 139 0
336 139 0
90 138 0
316 138 0
319 138 0
300 137 0
81 136 0
98 136 0
307 136 0
311 136 0
315 135 0
318 135 0
338 135 0
0 133 0
98 133 0
299 133 0
306 133 0
400 133 0
310 132 0
80 131 0
301 131 0
317 131 0
286 130 0
341 129 0
80 128 0
86 128 0
97 128 0
308 128 0
89 127 0
103 127 0
284 127 0
300 127 0
317 127 0
77 126 0
92 126 0
287 126 0
343 126 0
85 125 0
98 125 0
298 125 0
309 125 0
320 125 0
0 124 0
94 124 0
104 124 0
112 124 0
115 124 0
295 124 0
312 124 0
317 124 0
400 124 0
109 123 0
282 123 0
286 123 0
345 123 0
77 122 0
96 122 0
290 122 0
323 122 0
339 122 0
84 121 0
106 121 0
116 121 0
314 121 0
317 121 0
342 121 0
94 120 0
281 120 0
287 120 0
76 119 0
108 119 0
129 119 0
134 119 0
325 119 0
338 119 0
348 119 0
73 118 0
81 118 0
84 118 0
118 118 0
122 118 0
313 118 0
331 118 0
299 117 0
340 117 0
400 117 0
0 116 0
77 116 0
109 116 0
126 116 0
302 116 0
326 116 0
343 116 0
351 116 0
86 115 0
279 115 0
332 115 0
354 115 0
112 114 0
128 114 0
137 114 0
304 114 0
311 114 0
345 114 0
69 113 0
76 113 0
81 113 0
297 113 0
114 112 0
326 112 0
329 112 0
333 112 0
341 112 0
356 112 0
72 111 0
293 111 0
301 111 0
305 111 0
308 111 0
336 111 0
141 110 0
275 110 0
360 110 0
0 109 0
115 109 0
303 109 0
328 109 0
333 109 0
345 109 0
348 109 0
288 108 0
291 108 0
338 108 0
400 108 0
143 107 0
272 107 0
300 107 0
350 107 0
353 107 0
364 107 0
268 106 0
327 106 0
340 106 0
115 105 0
303 105 0
316 105 0
333 105 0
356 105 0
62 104 0
118 104 0
146 104 0
265 104 0
283 104 0
299 104 0
336 104 0
366 104 0
307 103 0
313 103 0
328 103 0
59 102 0
69 102 0
120 102 0
126 102 0
130 102 0
133 102 0
262 102 0
285 102 0
318 102 0
333 102 0
357 102 0
282 101 0
309 101 0
330 101 0
337 101 0
340 101 0
360 101 0
135 100 0
287 100 0
302 100 0
306 100 0
312 100 0
364 100 0
400 100 0
66 99 0
121 99 0
130 99 0
150 99 0
280 99 0
344 99 0
137 98 0
257 98 0
299 98 0
316 98 0
323 98 0
331 98 0
0 97 0
45 97 0
287 97 0
296 97 0
353 97 0
121 96 0
129 96 0
153 96 0
278 96 0
302 96 0
49 95 0
254 95 0
319 95 0
138 94 0
285 94 0
291 94 0
294 94 0
315 94 0
332 94 0
122 93 0
127 93 0
132 93 0
155 93 0
267 93 0
270 93 0
278 93 0
400 93 0
43 92 0
251 92 0
275 92 0
141 91 0
285 91 0
36 90 0
122 90 0
135 90 0
157 90 0
273 90 0
314 90 0
320 90 0
40 89 0
143 89 0
279 89 0
292 89 0
138 88 0
160 88 0
265 88 0
284 88 0
316 88 0
0 87 0
33 87 0
133 87 0
281 87 0
312 87 0
347 87 0
37 86 0
123 86 0
246 86 0
260 86 0
400 86 0
30 85 0
151 85 0
293 85 0
41 84 0
120 84 0
131 84 0
139 84 0
147 84 0
164 84 0
263 84 0
124 83 0
28 82 0
32 82 0
37 82 0
133 82 0
297 82 0
136 81 0
140 81 0
147 81 0
169 81 0
239 81 0
0 80 0
23 80 0
295 80 0
33 79 0
142 79 0
292 79 0
30 78 0
124 78 0
137 78 0
400 78 0
22 77 0
174 77 0
236 77 0
18 76 0
139 76 0
142 76 0
289 76 0
335 76 0
338 76 0
345 76 0
146 75 0
297 75 0
320 75 0
323 75 0
332 75 0
349 75 0
357 75 0
362 75 0
230 74 0
293 74 0
315 74 0
343 74 0
0 73 0
13 73 0
29 73 0
311 73 0
339 73 0
346 73 0
123 72 0
182 72 0
297 72 0
353 72 0
23 71 0
330 71 0
337 71 0
341 71 0
357 71 0
400 71 0
0 70 0
15 70 0
33 70 0
188 70 0
302 70 0
326 70 0
18 69 0
28 69 0
223 69 0
322 69 0
354 69 0
11 68 0
126 68 0
196 68 0
298 68 0
305 68 0
349 68 0
0 67 0
217 67 0
301 67 0
315 67 0
318 67 0
341 67 0
345 67 0
204 66 0
212 66 0
296 66 0
309 66 0
55 65 0
339 65 0
127 64 0
303 64 0
311 64 0
314 64 0
322 64 0
400 64 0
0 63 0
295 63 0
318 63 0
325 63 0
331 63 0
337 63 0
306 62 0
328 62 0
0 61 0
[...]
CELL_DATA 1198
COLOR_SCALARS lut 1
0.0576126
0.0656616
0.0706039
0.0730623
0.0735599
0.0733372
0.0727297
0.0719938
0.071279
0.0706584
0.0700119
0.0696535
0.0693868
0.0691937
0.069057
0.0689378
0.0688808
0.0688421
0.0688157
0.0687973
0.0687842
0.0687742
0.0687655
0.0687573
0.0687485
0.0687352
0.0687235
0.0687052
0.068683
0.0686637
0.0686414
0.0686158
0.0685859
0.0685511
0.0685105
0.0684633
0.0684087
0.0683456
0.0682725
0.0681563
0.068019
0.0678307
0.067708
0.0674805
0.0673295
0.0671717
0.0669149
0.066668
0.0664962
0.0662117
0.0659633
0.0656184
0.0653548
0.0650005
0.0647838
0.0646325
0.0645353
0.0644829
0.0644567
0.0641008
0.0634932
0.0631346
0.062797
0.062581
0.0625042
0.0626317
0.0628575
0.0631589
0.0634779
0.0639651
0.0642734
0.0647566
0.0652726
0.0657881
0.0661407
0.0664565
0.0668446
0.0671869
0.0675495
0.0678094
0.0680075
0.0682269
0.0684833
0.0687842
0.0691142
0.0694387
0.0692429
0.0690641
0.0689264
0.0688347
0.0687684
0.0687463
0.0687384
0.0687491
0.0687606
0.0687761
0.0687971
0.0688391
0.0688861
0.068981
0.0691331
0.069375
0.069641
0.0700007
0.0704705
0.0710563
0.0717413
0.0729365
0.0735974
0.0735968
0.0723538
0.0702158
0.0650726
0.07098
0.0855607
0.110579
0.12
0.174049
0.201515
0.274761
0.289547
0.362996
0.435162
0.463799
0.130294
0.127488
0.125043
0.122756
0.120175
0.11594
0.129265
0.11008
0.547929
0.133747
0.128066
0.106661
0.109513
0.107457
0.129855
0.105266
0.130458
0.113696
0.111251
0.109214
0.10673
0.107282
0.129714
0.115609
0.0990902
0.112737
0.12034
0.118515
0.117518
0.108391
0.103379
0.0958404
0.645587
0.125556
0.114192
0.091647
0.125163
0.123825
0.122719
0.122695
0.122118
0.103144
0.125825
0.126935
0.0860052
0.0830344
0.670816
0.123055
0.120625
0.132314
0.128259
0.105673
0.121447
0.127797
0.0785996
0.0794659
0.120842
0.118623
0.125321
0.10423
0.122538
0.113666
0.093011
0.0745948
0.0780078
0.106443
0.0829849
0.0737029
0.108463
0.102866
0.129863
0.10398
0.113603
0.13167
0.0955826
0.0773079
0.0813803
0.113266
0.0755691
0.119321
0.0969189
0.112534
0.0808277
0.107115
0.0993802
0.105772
0.130009
0.0807252
0.847753
0.100365
0.091709
0.0805018
0.0781498
0.0781925
0.0859472
0.120319
0.090932
0.106586
0.083067
0.0992281
0.125206
0.10016
0.1078
0.0887189
0.108398
0.0899942
0.114367
0.103921
0.0977385
0.0994218
0.126459
0.0951922
0.117104
0.132518
0.873321
0.113467
0.10083
0.100787
0.118154
0.12137
0.212043
0.113399
0.126924
0.11268
0.979191
0.115183
0.124058
0.224225
0.130425
0.122343
0.116945
0.111711
0.114891
0.111025
0.14032
0.114752
0.112219
0.11933
0.152192
0.120836
0.112613
0.111602
0.121725
0.125153
0.111542
0.137768
0.124542
0.859007
0.122222
0.121016
0.133985
0.112102
0.122956
0.110341
1
0.117189
0.117827
0.131037
0.116819
0.132273
0.117978
0.119377
0.135474
0.135234
0.126096
0.121622
0.121937
0.115841
0.137528
0.112797
0.825124
0.144705
0.12108
0.129604
0.144573
0.117359
0.129739
0.124481
0.11128
0.151057
0.960762
0.131169
0.125125
0.129971
0.147119
0.113495
0.131965
0.154003
0.158504
0.120794
0.797264
0.128962
0.154689
0.130828
0.158569
0.12066
0.298876
0.134421
0.116204
0.145721
0.934209
0.125235
0.140856
0.172871
0.116342
0.142192
0.149391
0.135748
0.131726
0.392442
0.119028
0.138883
0.151907
0.237299
0.148365
0.116103
0.216204
0.138956
0.162372
0.773318
0.134562
0.116034
0.223096
0.479404
0.147237
0.156291
0.916351
0.125253
0.115349
0.205777
0.157458
0.140819
0.141331
0.137935
0.113968
0.140607
0.227775
0.144002
0.142041
0.111961
0.14557
0.740262
0.13269
0.132653
0.135832
0.144482
0.113426
0.171455
0.896158
0.130701
0.153729
0.116506
0.125368
0.138947
0.133426
0.114743
0.317839
0.141116
0.314801
0.137513
0.134223
0.146147
0.119084
0.240426
0.715548
0.12047
0.247063
0.143329
0.133097
0.144116
0.21767
0.144671
0.150169
0.120592
0.151655
0.886863
0.150766
0.118563
0.120439
0.130734
0.278824
0.163663
0.153093
0.140253
0.119043
0.279705
0.15022
0.134015
0.147818
0.695176
0.132888
0.113594
0.216467
0.185496
0.193265
0.127768
0.16042
0.114788
0.195586
0.154948
0.18355
0.12921
0.145558
0.125778
0.190937
0.191564
0.149701
0.110499
0.130582
0.155692
0.128742
0.144713
0.133499
0.149075
0.691515
0.110307
0.122789
0.132602
0.885701
0.137697
0.212007
0.217524
0.130423
0.139338
0.144066
0.113973
0.254874
0.275512
0.172761
0.130852
0.191306
0.151843
0.348826
0.157761
0.149255
0.130895
0.118286
0.17509
0.189664
0.13494
0.185157
0.1531
0.136544
0.118609
0.694703
0.166677
0.147486
0.179265
0.134234
0.170649
0.161827
0.135924
0.120646
0.147068
0.156728
0.157251
0.143785
0.142067
0.126993
0.178631
0.146383
0.212384
0.1249
0.140766
0.148373
0.136983
0.21655
0.136428
0.885593
0.128268
0.131628
0.148214
0.122047
0.159274
0.151639
0.133799
0.132482
0.117493
0.138108
0.150632
0.179543
0.205552
0.128772
0.183259
0.194773
0.131837
0.117746
0.710264
0.179126
0.139197
0.147067
0.122841
0.15081
0.141245
0.145349
0.211689
0.134379
0.141456
0.13429
0.205098
0.152594
0.140085
0.140827
0.146763
0.145363
0.208941
0.141658
0.885431
0.132289
0.13655
0.172316
0.139157
0.175833
0.155589
0.146503
0.141221
0.151862
0.134899
0.157791
0.143672
0.151693
0.173988
0.140075
0.725651
0.17317
0.171708
0.143163
0.144394
0.135968
0.173408
0.177501
0.139998
0.190407
0.151928
0.152459
0.150077
0.164968
0.188911
0.134969
0.135544
0.145301
0.160482
0.146067
0.164782
0.131957
0.157207
0.161036
0.726724
0.155928
0.147914
0.135969
0.881323
0.144607
0.131938
0.171687
0.156169
0.148267
0.135328
0.16321
0.150974
0.200008
0.137276
0.177443
0.149238
0.145883
0.141878
0.180739
0.179917
0.154434
0.147687
0.181155
0.167337
0.162669
0.155975
0.161039
0.1605
0.162291
0.862794
0.143752
0.18103
0.162843
0.145149
0.704957
0.196771
0.170725
0.143721
0.187187
0.160201
0.183243
0.145001
0.176271
0.139147
0.132536
0.130184
0.199289
0.143373
0.206445
0.125594
0.174313
0.145169
0.122635
0.143047
0.127851
0.118739
0.11918
0.136413
0.210044
0.144428
0.647936
0.802935
0.162806
0.134937
0.110722
0.112821
0.12259
0.12681
0.132293
0.158508
0.160361
0.121509
0.152199
0.104927
0.11548
0.215386
0.103875
0.149818
0.116234
0.140355
0.105976
0.102568
0.159822
0.210932
0.152397
0.0993129
0.579529
0.116601
0.104819
0.154998
0.115228
0.0951792
0.101279
0.221799
0.113676
0.121109
0.136473
0.0988174
0.143246
0.1164
0.0928047
0.0986407
0.109557
0.123024
0.21104
0.654777
0.113488
0.101028
0.0912519
0.507377
0.0927075
0.133745
0.0965415
0.109077
0.152355
0.178302
0.125063
0.106746
0.106277
0.0910052
0.10351
0.117149
0.157221
0.0980859
0.101401
0.138398
0.103429
0.134268
0.16242
0.106082
0.108586
0.100478
0.0916743
0.105542
0.577437
0.106714
0.116954
0.131383
0.139784
0.104832
0.0922715
0.0975121
0.443627
0.122758
0.157308
0.130817
0.148407
0.130975
0.11355
0.113069
0.104744
0.11991
0.109973
0.120828
0.129756
0.0936018
0.095765
0.121176
0.119343
0.153816
0.119574
0.13441
0.123497
0.147328
0.166391
0.0996592
0.103741
0.13621
0.151826
0.119281
0.117096
0.124993
0.130555
0.0940708
0.0981481
0.0933478
0.0984938
0.406022
0.509066
0.132883
0.129652
0.129618
0.0914407
0.0942666
0.100995
0.134317
0.132656
0.150592
0.0902652
0.145939
0.12823
0.127873
0.158824
0.0896409
0.0933875
0.100427
0.171039
0.143394
0.13969
0.0898813
0.127768
0.0905336
0.0877009
0.0856386
0.0889551
0.139217
0.157708
0.0927842
0.0861484
0.0876147
0.0899674
0.0848527
0.167992
0.154434
0.15363
0.447563
0.130905
0.0854169
0.0876494
0.0844629
0.0934163
0.0999508
0.0985814
0.0933046
0.0856923
0.37787
0.16724
0.156484
0.084468
0.103819
0.111272
0.170684
0.172494
0.0896192
0.089103
0.139682
0.0847754
0.0940944
0.0874812
0.11945
0.185853
0.126988
0.171467
0.176147
0.104084
0.084777
0.0899889
0.181463
0.0877847
0.0916581
0.0918162
0.196712
0.183062
0.120265
0.106321
0.106114
0.110061
0.180858
0.0967161
0.093883
0.0932187
0.125189
0.101287
0.090212
0.0951203
0.0984651
0.100925
0.139816
0.108487
0.0918509
0.0872197
0.089649
0.0920576
0.167617
0.372157
0.192605
0.117438
0.0999618
0.169582
0.102875
0.111421
0.107721
0.190662
0.0880477
0.0946403
0.0992544
0.104319
0.336373
0.23113
0.0903421
0.0879864
0.130993
0.119551
0.09636
0.173357
0.104629
0.0934792
0.21517
0.198884
0.100865
0.100454
0.0932555
0.0897701
0.0899931
0.100905
0.121277
0.116691
0.0983378
0.0928079
0.173181
0.131267
0.123741
0.105879
0.378129
0.20551
0.212936
0.114201
0.101956
0.0982213
0.201147
0.119803
0.0920104
0.178477
0.124202
0.110773
0.114464
0.19067
0.104486
0.115271
0.0972003
0.0941576
0.201532
0.149903
0.109398
0.11569
0.240924
0.183829
0.0936843
0.120623
0.119258
0.150585
0.175157
0.119762
0.24609
0.176958
0.386393
0.174796
0.135137
0.105203
0.183346
0.144193
0.100734
0.0990315
0.118145
0.237973
0.182321
0.120821
0.157966
0.154347
0.165
0.103831
0.110903
0.105787
0.108211
0.126682
0.27891
0.284057
0.180962
0.160208
0.112872
0.148615
0.119771
0.120294
0.141514
0.134977
0.118413
0.389898
0.147342
0.292934
0.285671
0.155951
0.131025
0.1365
0.142003
0.113408
0.113632
0.119939
0.156439
0.114725
0.104952
0.105874
0.109003
0.1275
0.163288
0.201474
0.293079
0.125648
0.104296
0.111583
0.142634
0.160581
0.141095
0.106644
0.104852
0.116478
0.161697
0.272361
0.115629
0.143043
0.142377
0.0959855
0.0998595
0.105045
0.168867
0.395099
0.137577
0.157398
0.166058
0.266631
0.11047
0.0927364
0.155964
0.154107
0.30298
0.090283
0.159333
0.167369
0.162216
0.285971
0.116407
0.106945
0.137672
0.140425
0.318579
0.112452
0.0916533
0.0892525
0.109932
0.124451
0.308573
0.322486
0.125003
0.100459
0.347108
0.108811
0.167436
0.114524
0.0981197
0.0932281
0.0884254
0.410472
0.156281
0.136819
0.090356
0.0894667
0.0930422
0.107238
0.113981
0.0914013
0.168871
0.310674
0.315601
0.314082
0.302348
0.278502
0.233799
0.104241
0.173529
0.298645
0.205573
0.148264
0.10763
0.176843
0.117407
0.0987394
0.192329
0.289965
0.439569
0.187596
0.114383
0.225106
0.256272
0.278582
0.12043
0.229105
0.273063
0.168602
0.116308
0.107354
0.281715
0.207462
0.231505
0.293517
0.137962
0.203618
0.161616
0.110687
0.204853
0.153678
0.13465
0.148059
0.296363
0.141858
0.120964
0.11868
0.484029
0.18259
0.12421
0.143362
0.125024
0.311722
0.146808
0.139116
0.165858
0.16197
0.288606
0.140318
0.158629
0.179692
0.151951
0.148208
0.171397
0.354084
0.183709
0.153184
0.254365
0.125721
0.136452
0.153263
0.131188
0.478569
0.153936
0.117275
0.123455
0.143786
0.367681
0.154854
0.216137
0.140519
0.109594
0.129163
0.14652
0.20296
0.107946
0.123007
0.364862
0.109519
0.109997
0.187242
0.298884
0.150866
0.114335
0.124211
0.112871
0.122437
0.186895
0.275858
0.132996
0.243955
0.122164
0.136954
0.175769
0.213765
0.187899
0.132995
0.157541
0.169066
0.113113
0.118288
0.144714
0.131869
0.13277
0.109358
0.105688
0.127364
0.112301
0.132231
0.168462
0.225036
0.35083
0.48727
0.53867
0.582162
0.628812
0.671489
0.686365
0.620977
0.556774
0.539273
0.533028
0.512757
0.460359
0.384866
0.312098
0.249507
0.17848
0.123124
0.0971964
0.0968734
0.110776
0.117183
0.121208
0.120081
0.11711
0.115552
0.150953
0.212783
0.30267
0.380301
0.487766
0.597172
0.595204
0.539686
0.458509
0.421495
0.412208
0.424912
0.448301
0.484249
0.493847
0.459938
0.376239
0.301132
0.237947
0.169032
0.125394
