# vtk DataFile Version 1.0
Unstructured Grid Example
ASCII

DATASET UNSTRUCTURED_GRID
POINTS 4826 float
126 193 0
98 133 0
195 19 0
78 191 0
38 48 0
125 43 0
135 90 0
36 90 0
89 235 0
134 135 0
45 248 0
210 381 0
372 394 0
221 377 0
318 257 0
153 172 0
267 93 0
212 60 0
55 117 0
15 54 0
57 107 0
98 201 0
102 202 0
148 88 0
149 94 0
146 258 0
153 209 0
116 259 0
101 239 0
94 253 0
92 244 0
92 225 0
107 317 0
107 291 0
107 324 0
99 324 0
86 396 0
100 397 0
93 400 0
175 363 0
133 395 0
168 353 0
192 352 0
122 340 0
186 326 0
109 282 0
226 237 0
228 211 0
237 316 0
205 339 0
226 352 0
233 371 0
205 365 0
264 386 0
243 400 0
282 389 0
300 353 0
340 336 0
329 230 0
319 310 0
347 116 0
358 118 0
338 206 0
331 202 0
290 122 0
309 107 0
297 113 0
233 49 0
213 97 0
196 68 0
283 82 0
284 85 0
295 11 0
335 107 0
340 34 0
98 66 0
0 10 0
28 69 0
23 71 0
83 96 0
56 85 0
31 97 0
156 78 0
145 79 0
108 113 0
147 50 0
127 33 0
98 11 0
155 1 0
188 13 0
174 8 0
192 4 0
198 2 0
198 8 0
201 13 0
205 20 0
198 42 0
209 20 0
195 35 0
189 32 0
166 27 0
188 75 0
158 85 0
116 121 0
98 136 0
121 137 0
128 114 0
192 148 0
137 121 0
136 149 0
172 202 0
188 202 0
174 192 0
145 199 0
127 170 0
98 195 0
101 193 0
87 152 0
92 166 0
94 147 0
95 136 0
83 127 0
84 121 0
81 122 0
70 144 0
0 133 0
54 138 0
46 146 0
75 171 0
77 201 0
78 178 0
77 212 0
68 240 0
83 226 0
88 240 0
88 224 0
91 259 0
103 256 0
103 277 0
104 290 0
84 291 0
84 267 0
52 262 0
59 271 0
38 266 0
89 293 0
13 292 0
78 294 0
65 389 0
89 394 0
3 397 0
17 395 0
110 389 0
107 397 0
93 393 0
107 330 0
108 320 0
109 314 0
111 303 0
153 371 0
150 350 0
117 338 0
143 396 0
153 399 0
123 400 0
144 400 0
174 391 0
209 394 0
175 397 0
158 382 0
202 380 0
203 362 0
177 356 0
124 291 0
202 314 0
129 273 0
123 249 0
116 333 0
114 314 0
112 259 0
176 213 0
154 221 0
138 230 0
140 210 0
184 213 0
202 212 0
209 213 0
213 205 0
249 243 0
217 269 0
222 239 0
263 321 0
271 182 0
275 174 0
277 296 0
265 330 0
276 334 0
265 334 0
259 339 0
240 336 0
253 350 0
233 351 0
214 365 0
247 356 0
231 354 0
227 373 0
236 383 0
250 387 0
250 400 0
270 391 0
279 398 0
252 391 0
267 376 0
282 369 0
256 354 0
276 352 0
302 318 0
296 317 0
296 345 0
283 363 0
292 390 0
295 387 0
288 392 0
376 394 0
386 400 0
370 397 0
400 355 0
311 341 0
387 332 0
319 323 0
328 217 0
400 281 0
334 252 0
323 234 0
319 286 0
292 314 0
313 269 0
319 165 0
304 166 0
323 167 0
323 185 0
328 211 0
344 199 0
329 208 0
400 151 0
348 162 0
348 139 0
368 114 0
364 100 0
361 96 0
348 96 0
323 122 0
321 110 0
327 100 0
327 132 0
321 147 0
311 162 0
321 162 0
303 139 0
304 158 0
300 153 0
287 140 0
285 154 0
272 161 0
282 162 0
288 117 0
272 125 0
287 114 0
293 122 0
295 124 0
310 95 0
305 119 0
297 72 0
317 91 0
305 78 0
288 89 0
287 72 0
281 87 0
264 94 0
230 15 0
218 23 0
256 45 0
277 70 0
289 69 0
282 61 0
306 59 0
324 52 0
326 1 0
327 53 0
325 55 0
326 70 0
327 86 0
328 73 0
392 85 0
356 86 0
338 83 0
345 64 0
391 63 0
361 62 0
343 46 0
331 54 0
2 7 0
0 15 0
14 40 0
14 47 0
31 26 0
19 26 0
27 9 0
26 65 0
50 60 0
30 49 0
23 63 0
12 64 0
6 57 0
0 63 0
18 69 0
3 68 0
0 73 0
5 76 0
12 82 0
2 92 0
0 87 0
21 84 0
49 99 0
25 96 0
28 82 0
23 80 0
33 79 0
47 74 0
102 91 0
60 68 0
53 91 0
88 92 0
63 97 0
107 100 0
66 94 0
118 95 0
118 99 0
121 96 0
116 84 0
120 84 0
123 72 0
122 67 0
110 56 0
117 58 0
87 65 0
71 49 0
55 65 0
61 58 0
69 59 0
73 1 0
55 1 0
110 31 0
112 1 0
116 9 0
119 40 0
117 24 0
162 1 0
148 1 0
183 15 0
140 21 0
186 33 0
135 32 0
174 33 0
191 29 0
186 30 0
189 35 0
190 26 0
190 20 0
191 10 0
189 6 0
194 22 0
191 1 0
192 7 0
195 8 0
196 14 0
203 16 0
206 17 0
205 26 0
207 29 0
204 29 0
200 22 0
198 30 0
199 33 0
195 32 0
176 49 0
175 39 0
181 37 0
187 54 0
207 36 0
195 39 0
197 50 0
192 58 0
201 57 0
191 65 0
181 58 0
167 63 0
162 75 0
156 101 0
143 99 0
150 99 0
145 86 0
142 79 0
144 36 0
153 50 0
151 42 0
131 66 0
126 48 0
125 56 0
131 77 0
127 83 0
125 91 0
127 99 0
130 88 0
112 121 0
114 112 0
115 109 0
112 127 0
117 127 0
118 131 0
114 154 0
129 119 0
124 147 0
120 111 0
123 111 0
129 105 0
122 106 0
126 102 0
142 116 0
129 110 0
139 105 0
144 112 0
146 104 0
160 110 0
164 105 0
159 132 0
174 132 0
181 141 0
149 143 0
137 125 0
129 135 0
129 152 0
165 179 0
165 170 0
168 182 0
171 171 0
191 162 0
171 177 0
190 184 0
184 187 0
184 198 0
192 191 0
180 197 0
170 193 0
167 189 0
166 195 0
165 186 0
153 192 0
140 197 0
142 179 0
146 178 0
138 157 0
149 156 0
132 158 0
120 155 0
118 160 0
123 169 0
132 191 0
112 179 0
135 185 0
104 182 0
109 184 0
106 198 0
102 198 0
100 184 0
95 194 0
88 196 0
92 143 0
89 161 0
92 155 0
102 144 0
105 171 0
106 152 0
108 156 0
101 125 0
107 131 0
100 139 0
109 116 0
112 107 0
109 105 0
104 103 0
90 117 0
99 110 0
100 105 0
96 122 0
92 126 0
93 138 0
90 138 0
80 128 0
69 133 0
85 125 0
79 120 0
67 117 0
85 112 0
70 106 0
59 102 0
37 102 0
62 104 0
51 105 0
50 111 0
62 109 0
32 142 0
84 154 0
83 147 0
0 150 0
84 150 0
85 174 0
85 158 0
85 166 0
68 198 0
88 190 0
83 184 0
66 182 0
55 177 0
41 188 0
28 179 0
0 175 0
73 215 0
0 209 0
52 199 0
47 218 0
67 221 0
69 228 0
70 234 0
83 230 0
82 234 0
86 235 0
88 227 0
80 223 0
87 203 0
85 200 0
92 222 0
89 212 0
92 214 0
102 214 0
118 217 0
121 221 0
131 222 0
114 225 0
132 233 0
110 225 0
109 233 0
91 231 0
98 234 0
105 232 0
111 269 0
109 261 0
103 247 0
116 263 0
120 245 0
121 260 0
120 236 0
116 272 0
124 302 0
115 277 0
109 295 0
105 282 0
105 306 0
108 308 0
96 296 0
103 304 0
95 271 0
90 262 0
98 242 0
102 261 0
93 235 0
78 271 0
55 237 0
83 262 0
48 279 0
83 279 0
23 305 0
88 283 0
29 370 0
0 357 0
24 323 0
42 330 0
47 352 0
74 329 0
81 315 0
52 381 0
78 389 0
74 387 0
44 383 0
35 378 0
31 386 0
9 373 0
32 395 0
14 391 0
29 397 0
33 398 0
22 400 0
35 400 0
13 400 0
49 398 0
66 400 0
63 400 0
38 396 0
41 395 0
67 395 0
73 393 0
113 396 0
105 384 0
96 396 0
87 399 0
96 400 0
114 400 0
89 400 0
120 400 0
127 400 0
117 400 0
128 386 0
116 371 0
132 381 0
131 368 0
130 353 0
131 335 0
128 335 0
115 350 0
103 365 0
111 365 0
95 328 0
111 325 0
110 311 0
92 310 0
119 312 0
122 320 0
122 326 0
122 314 0
128 319 0
141 330 0
139 326 0
134 330 0
150 337 0
155 331 0
160 330 0
158 334 0
158 342 0
164 344 0
161 338 0
153 339 0
141 343 0
138 343 0
135 340 0
133 387 0
151 379 0
148 346 0
148 388 0
144 390 0
139 400 0
147 393 0
157 393 0
160 400 0
160 397 0
160 368 0
155 366 0
161 349 0
154 356 0
168 372 0
175 367 0
188 372 0
184 384 0
179 385 0
182 397 0
174 400 0
204 396 0
190 400 0
206 381 0
193 376 0
208 373 0
196 369 0
200 371 0
196 355 0
207 362 0
200 361 0
195 358 0
190 361 0
169 358 0
184 363 0
185 353 0
165 334 0
189 352 0
196 352 0
198 329 0
201 346 0
207 351 0
200 299 0
203 321 0
203 285 0
207 284 0
202 252 0
203 246 0
202 281 0
186 255 0
179 252 0
194 260 0
191 277 0
198 278 0
182 317 0
189 316 0
172 270 0
174 285 0
161 255 0
159 260 0
148 322 0
143 271 0
136 296 0
151 255 0
138 236 0
135 252 0
154 235 0
166 253 0
168 248 0
168 238 0
176 232 0
178 221 0
168 218 0
168 231 0
133 228 0
168 226 0
150 219 0
158 216 0
149 214 0
168 202 0
171 207 0
176 201 0
181 210 0
178 217 0
181 215 0
191 215 0
188 212 0
189 219 0
182 221 0
193 222 0
191 225 0
201 224 0
206 226 0
203 217 0
200 215 0
205 214 0
201 205 0
195 205 0
197 199 0
214 213 0
220 206 0
209 217 0
220 220 0
210 221 0
212 224 0
225 224 0
240 218 0
238 222 0
235 217 0
231 207 0
241 200 0
242 204 0
245 195 0
254 198 0
245 201 0
257 202 0
264 202 0
270 192 0
273 198 0
275 192 0
271 204 0
271 219 0
258 219 0
256 216 0
246 220 0
250 222 0
245 205 0
246 249 0
244 229 0
235 235 0
249 233 0
251 255 0
252 230 0
269 244 0
270 262 0
274 302 0
263 256 0
257 273 0
252 279 0
236 268 0
237 285 0
231 258 0
227 283 0
226 256 0
225 252 0
229 244 0
229 239 0
228 229 0
223 231 0
215 227 0
221 243 0
217 264 0
210 279 0
223 292 0
214 295 0
221 330 0
217 303 0
225 322 0
227 331 0
232 334 0
237 341 0
239 324 0
241 346 0
242 343 0
241 352 0
236 357 0
219 357 0
225 356 0
212 344 0
216 369 0
217 360 0
219 381 0
219 386 0
212 394 0
217 400 0
212 400 0
239 375 0
243 389 0
244 379 0
241 369 0
222 365 0
227 364 0
233 358 0
252 356 0
250 350 0
258 356 0
245 363 0
247 383 0
248 393 0
258 400 0
260 397 0
274 397 0
258 387 0
259 382 0
264 381 0
272 350 0
260 373 0
268 350 0
274 340 0
265 349 0
261 342 0
245 346 0
252 343 0
252 348 0
254 320 0
249 310 0
247 336 0
256 310 0
265 325 0
273 334 0
275 313 0
274 324 0
291 311 0
288 305 0
306 307 0
308 310 0
309 307 0
317 302 0
309 314 0
300 325 0
315 316 0
304 315 0
296 322 0
295 328 0
281 333 0
280 322 0
289 370 0
289 336 0
302 372 0
277 396 0
289 396 0
293 400 0
301 400 0
312 397 0
309 397 0
316 393 0
308 377 0
321 367 0
304 334 0
315 360 0
340 396 0
350 393 0
337 397 0
353 398 0
342 398 0
331 400 0
329 399 0
397 397 0
393 400 0
400 399 0
367 395 0
395 395 0
360 394 0
357 390 0
400 364 0
400 372 0
400 382 0
397 387 0
382 359 0
347 389 0
342 387 0
331 305 0
330 318 0
341 304 0
352 305 0
373 329 0
388 318 0
373 313 0
372 278 0
348 295 0
340 277 0
358 277 0
371 260 0
400 256 0
359 258 0
329 259 0
325 241 0
332 245 0
325 261 0
328 262 0
323 284 0
331 283 0
309 279 0
316 284 0
314 289 0
307 301 0
306 276 0
300 285 0
306 293 0
309 240 0
295 274 0
310 271 0
311 266 0
312 274 0
315 273 0
323 264 0
326 233 0
326 229 0
324 221 0
324 238 0
313 228 0
317 220 0
294 223 0
311 193 0
303 216 0
300 205 0
313 199 0
315 209 0
321 210 0
325 217 0
329 205 0
328 202 0
329 197 0
332 206 0
333 219 0
333 235 0
338 239 0
359 222 0
400 231 0
374 223 0
390 208 0
348 206 0
342 204 0
357 202 0
341 194 0
385 168 0
400 177 0
375 179 0
373 152 0
339 185 0
335 179 0
343 168 0
343 126 0
341 138 0
341 129 0
347 126 0
350 123 0
362 123 0
400 133 0
375 109 0
369 120 0
356 112 0
356 108 0
379 105 0
360 101 0
357 102 0
348 109 0
344 99 0
351 104 0
336 111 0
341 112 0
339 114 0
335 121 0
324 133 0
329 135 0
328 109 0
327 106 0
322 105 0
333 102 0
330 105 0
315 101 0
312 100 0
313 103 0
316 105 0
316 108 0
313 141 0
313 118 0
316 143 0
313 154 0
313 151 0
317 152 0
320 142 0
323 144 0
331 147 0
331 185 0
334 183 0
328 184 0
323 173 0
[...]
CELL_DATA 9403
COLOR_SCALARS ColorSpace 1
0.124183
0.411765
0.139869
0.171242
0.150327
0.24183
0.179085
0.101961
0.398693
0.355556
0.184314
0.240523
0.0954248
0.433987
0.305882
0.176471
0.428758
0.224837
0.0849673
0.141176
0.0993464
0.15817
0.23268
0.0901961
0.222222
0.105882
0.247059
0.315033
0.673203
0.113725
0.265359
0.25098
0.281046
0.096732
0.0810458
0.393464
0.0836601
0.0849673
0.201307
0.461438
0.203922
0.386928
0.431373
0.215686
0.431373
0.298039
0.560784
0.166013
0.205229
0.257516
0.227451
0.619608
0.462745
0.267974
0.166013
0.219608
0.262745
0.258824
0.397386
0.273203
0.201307
0.488889
0.177778
0.50719
0.0928105
0.135948
0.141176
0.257516
0.113725
0.109804
0.0823529
0.201307
0.0797386
0.0797386
0.133333
0.0771242
0.392157
0.19085
0.0849673
0.0901961
0.0823529
0.411765
0.129412
0.152941
0.0901961
0.267974
0.184314
0.228758
0.211765
0.168627
0.193464
0.0928105
0.172549
0.124183
0.104575
0.240523
0.159477
0.160784
0.368627
0.129412
0.411765
0.308497
0.48366
0.0980392
0.145098
0.101961
0.105882
0.103268
0.121569
0.105882
0.12549
0.347712
0.356863
0.303268
0.132026
0.377778
0.118954
0.337255
0.124183
0.23268
0.11634
0.392157
0.104575
0.20915
0.216993
0.334641
0.40915
0.332026
0.369935
0.347712
0.717647
0.346405
0.299346
0.426144
0.11634
0.381699
0.282353
0.244444
0.339869
0.096732
0.339869
0.433987
0.260131
0.146405
0.121569
0.163399
0.218301
0.230065
0.322876
0.270588
0.0849673
0.309804
0.220915
0.230065
0.205229
0.300654
0.0823529
0.188235
0.452288
0.385621
0.415686
0.186928
0.291503
0.183007
0.11634
0.448366
0.155556
0.12549
0.0941176
0.0888889
0.291503
0.169935
0.347712
0.397386
0.096732
0.333333
0.0980392
0.298039
0.550327
0.317647
0.418301
0.647059
0.449673
0.584314
0.616993
0.341176
0.386928
0.356863
0.711111
0.503268
0.616993
0.396078
0.538562
0.100654
0.169935
0.135948
0.0928105
0.0941176
0.556863
0.249673
0.168627
0.315033
0.338562
0.145098
0.258824
0.355556
0.324183
0.120261
0.171242
0.172549
0.366013
0.0915033
0.227451
0.164706
0.172549
0.20915
0.214379
0.115033
0.215686
0.239216
0.218301
0.19085
0.230065
0.40915
0.193464
0.20915
0.458824
0.185621
0.120261
0.134641
0.278431
0.180392
0.4
0.362092
0.201307
0.355556
0.40915
0.2
0.313725
0.329412
0.380392
0.122876
0.0862745
0.197386
0.0941176
0.0836601
0.129412
0.0823529
0.14902
0.15817
0.240523
0.0836601
0.16732
0.0928105
0.193464
0.133333
0.186928
0.0836601
0.197386
0.137255
0.51634
0.166013
0.443137
0.224837
0.298039
0.135948
0.175163
0.214379
0.159477
0.197386
0.383007
0.164706
0.15817
0.0888889
0.270588
0.0862745
0.0862745
0.0928105
0.113725
0.124183
0.0836601
0.0849673
0.48366
0.219608
0.0862745
0.0849673
0.0849673
0.0888889
0.0862745
0.163399
0.0915033
0.075817
0.0875817
0.0888889
0.0862745
0.0849673
0.0836601
0.0862745
0.0941176
0.0901961
0.0915033
0.0836601
0.163399
0.0875817
0.252288
0.15817
0.230065
0.269281
0.265359
0.471895
0.0901961
0.154248
0.0888889
0.585621
0.0928105
0.0888889
0.0901961
0.0901961
0.0810458
0.0797386
0.0875817
0.096732
0.0849673
0.096732
0.194771
0.0941176
0.0941176
0.0875817
0.113725
0.0993464
0.202614
0.198693
0.266667
0.481046
0.175163
0.142484
0.180392
0.188235
0.139869
0.152941
0.177778
0.143791
0.16732
0.146405
0.43268
0.2
0.168627
0.15817
0.159477
0.29281
0.152941
0.118954
0.211765
0.265359
0.184314
0.171242
0.249673
0.176471
0.150327
0.197386
0.0941176
0.181699
0.198693
0.218301
0.181699
0.194771
0.248366
0.142484
0.156863
0.239216
0.15817
0.113725
0.168627
0.490196
0.279739
0.193464
0.124183
0.383007
0.201307
0.120261
0.105882
0.11634
0.298039
0.271895
0.247059
0.198693
0.139869
0.342484
0.218301
0.198693
0.428758
0.219608
0.321569
0.19085
0.223529
0.413072
0.275817
0.220915
0.177778
0.47451
0.0941176
0.162092
0.105882
0.101961
0.103268
0.104575
0.105882
0.0980392
0.101961
0.101961
0.264052
0.105882
0.471895
0.520261
0.104575
0.296732
0.103268
0.159477
0.15817
0.117647
0.113725
0.534641
0.598693
0.11634
0.105882
0.115033
0.104575
0.108497
0.115033
0.108497
0.105882
0.124183
0.0941176
0.120261
0.109804
0.12549
0.122876
0.118954
0.151634
0.11634
0.124183
0.113725
0.12549
0.11634
0.137255
0.311111
0.128105
0.305882
0.288889
0.179085
0.281046
0.256209
0.113725
0.160784
0.12549
0.11634
0.198693
0.196078
0.433987
0.422222
0.122876
0.388235
0.244444
0.24183
0.244444
0.366013
0.253595
0.121569
0.188235
0.254902
0.12549
0.288889
0.124183
0.219608
0.122876
0.380392
0.138562
0.35817
0.25098
0.389542
0.129412
0.313725
0.236601
0.333333
0.440523
0.269281
0.359477
0.243137
0.351634
0.389542
0.215686
0.389542
0.189542
0.337255
0.40915
0.453595
0.260131
0.296732
0.338562
0.24183
0.193464
0.205229
0.264052
0.254902
0.103268
0.252288
0.0980392
0.12549
0.133333
0.207843
0.202614
0.559477
0.257516
0.101961
0.330719
0.671895
0.222222
0.326797
0.36732
0.366013
0.284967
0.284967
0.279739
0.354248
0.470588
0.494118
0.273203
0.337255
0.211765
0.24183
0.288889
0.28366
0.496732
0.742484
0.466667
0.328105
0.282353
0.588235
0.735948
0.496732
0.176471
0.535948
0.142484
0.105882
0.162092
0.690196
0.363399
0.407843
0.657516
0.329412
0.745098
0.270588
0.371242
0.252288
0.277124
0.12549
0.273203
0.237908
0.244444
0.294118
0.345098
0.230065
0.257516
0.269281
0.334641
0.269281
0.130719
0.228758
0.237908
0.265359
0.264052
0.240523
0.142484
0.133333
0.11634
0.160784
0.126797
0.196078
0.188235
0.315033
0.222222
0.0901961
0.141176
0.0875817
0.0901961
0.0888889
0.193464
0.0849673
0.152941
0.138562
0.0862745
0.0901961
0.0901961
0.0875817
0.228758
0.273203
0.15817
0.290196
0.245752
0.122876
0.273203
0.278431
0.214379
0.154248
0.173856
0.129412
0.103268
0.126797
0.0888889
0.0836601
0.141176
0.368627
0.12549
0.193464
0.0810458
0.0797386
0.0836601
0.0823529
0.317647
0.146405
0.270588
0.186928
0.0836601
0.0836601
0.196078
0.34902
0.213072
0.347712
0.29281
0.364706
0.231373
0.371242
0.181699
0.181699
0.185621
0.201307
0.260131
0.352941
0.214379
0.194771
0.245752
0.265359
0.226144
0.354248
0.267974
0.20915
0.213072
0.16732
0.375163
0.264052
0.700654
0.240523
0.271895
0.160784
0.355556
0.396078
0.509804
0.169935
0.515033
0.284967
0.194771
0.176471
0.240523
0.176471
0.193464
0.218301
0.192157
0.171242
0.230065
0.196078
0.155556
0.222222
0.155556
0.24183
0.132026
0.150327
0.163399
0.0954248
0.12549
0.0915033
0.0941176
0.210458
0.135948
0.105882
0.0941176
0.332026
0.096732
0.154248
0.414379
0.0915033
0.096732
0.364706
0.447059
0.0915033
0.156863
0.159477
0.341176
0.40915
0.304575
0.4
0.375163
0.39085
0.398693
0.245752
0.419608
0.352941
0.380392
0.317647
0.406536
0.222222
0.328105
0.454902
0.347712
0.326797
0.335948
0.428758
0.34902
0.338562
0.403922
0.341176
0.318954
0.494118
0.379085
0.330719
0.243137
0.49281
0.286275
0.264052
0.342484
0.535948
0.291503
0.511111
0.397386
0.487582
0.373856
0.461438
0.479739
0.40915
0.48366
0.103268
0.183007
0.121569
0.39085
0.49281
0.631373
0.372549
0.350327
0.675817
0.440523
0.351634
0.690196
0.321569
0.566013
0.465359
0.643137
0.36732
0.364706
0.802614
0.118954
0.384314
0.43268
0.551634
0.700654
0.806536
0.0980392
0.2
0.560784
0.381699
0.444444
0.201307
0.359477
0.545098
0.376471
0.439216
0.156863
0.0954248
0.132026
0.216993
0.135948
0.103268
0.258824
0.249673
0.214379
0.205229
0.419608
0.228758
0.39085
0.287582
0.413072
0.253595
0.332026
0.341176
0.362092
0.402614
0.445752
0.301961
0.347712
0.134641
0.332026
0.227451
0.359477
0.237908
0.173856
0.252288
0.277124
0.34902
0.188235
0.185621
0.156863
0.239216
0.160784
0.287582
0.181699
0.214379
0.448366
0.35817
0.435294
0.220915
0.342484
0.413072
0.351634
0.416993
0.362092
0.426144
0.0941176
0.0928105
0.443137
0.431373
0.207843
0.521569
0.0928105
0.0941176
0.569935
0.0941176
0.0941176
0.0915033
0.175163
0.0993464
0.0954248
0.0941176
0.0928105
0.0993464
0.0901961
0.096732
0.0928105
0.128105
0.194771
0.104575
0.151634
0.201307
0.266667
0.15817
0.0928105
0.115033
0.0941176
0.222222
0.0915033
0.164706
0.0928105
0.0941176
0.0928105
0.101961
0.0928105
0.0915033
0.112418
0.096732
0.0928105
0.0993464
0.163399
0.132026
0.118954
0.0941176
0.213072
0.230065
0.235294
0.19085
0.14902
0.206536
0.243137
0.202614
0.219608
0.235294
0.175163
0.239216
0.186928
0.218301
0.290196
0.258824
0.196078
0.243137
0.275817
0.0901961
0.0901961
0.163399
0.252288
0.206536
0.172549
0.16732
0.159477
0.169935
0.196078
0.29281
0.186928
0.186928
0.147712
0.152941
0.141176
0.270588
0.278431
0.175163
0.139869
0.152941
0.159477
0.159477
0.16732
0.181699
0.215686
0.150327
0.189542
0.210458
0.345098
0.183007
0.311111
0.498039
0.487582
0.541176
0.265359
0.423529
0.300654
0.2
0.163399
0.398693
0.381699
0.166013
0.380392
0.189542
0.304575
0.352941
0.25098
0.271895
0.294118
0.247059
0.230065
0.27451
0.278431
0.248366
0.236601
0.23268
0.220915
0.184314
0.27451
0.335948
0.284967
0.281046
0.248366
0.219608
0.270588
0.249673
0.29281
0.290196
0.381699
0.318954
0.402614
0.39085
0.334641
0.362092
0.128105
0.0836601
0.372549
0.253595
0.181699
0.299346
0.179085
0.298039
0.206536
0.396078
0.267974
0.223529
0.298039
0.185621
0.0928105
0.186928
0.291503
0.262745
0.12549
0.0954248
0.126797
0.0836601
0.219608
0.243137
0.0836601
0.15817
0.312418
0.129412
0.388235
0.407843
0.0823529
0.14902
0.321569
0.160784
0.286275
0.403922
0.406536
0.36732
0.156863
0.15817
0.0849673
0.343791
0.244444
0.247059
0.410458
0.10719
0.10719
0.121569
0.0862745
0.0836601
0.0810458
0.0823529
0.0810458
0.0810458
0.19085
0.0862745
0.0823529
0.0888889
0.0836601
0.0901961
0.0849673
0.139869
0.101961
0.118954
0.103268
0.145098
0.0928105
0.278431
0.247059
0.371242
0.2
0.240523
0.296732
0.345098
0.269281
0.172549
0.210458
0.220915
0.261438
0.444444
0.260131
0.416993
0.420915
0.422222
0.375163
0.426144
0.28366
0.138562
0.192157
0.203922
0.146405
0.279739
0.224837
0.185621
0.159477
0.275817
0.196078
0.12549
0.173856
0.428758
0.164706
0.205229
0.560784
0.185621
0.571242
0.334641
0.452288
0.271895
0.326797
0.156863
0.226144
0.211765
0.334641
0.230065
0.177778
0.164706
0.162092
0.133333
0.240523
0.142484
0.163399
0.143791
0.24183
0.151634
0.15817
0.264052
0.152941
0.159477
0.278431
0.350327
0.324183
0.257516
0.185621
0.343791
0.24183
0.461438
0.389542
0.373856
0.351634
0.270588
0.389542
0.486275
0.175163
0.194771
0.252288
0.40915
0.4
0.202614
0.496732
0.524183
0.490196
0.23268
0.0875817
0.0836601
0.0915033
0.226144
0.121569
0.0862745
0.0836601
0.282353
0.0862745
0.0862745
0.0862745
0.172549
0.247059
0.0888889
0.0823529
0.0849673
0.0849673
0.0810458
0.135948
0.0849673
0.0862745
0.0875817
0.0849673
0.0888889
0.0993464
0.0849673
0.0875817
0.0875817
0.101961
0.0888889
0.0901961
0.0784314
0.0875817
0.0862745
0.0888889
0.0875817
0.0862745
0.0862745
0.0888889
0.0862745
0.0875817
0.0875817
0.0836601
0.0797386
0.0875817
0.0875817
0.0745098
0.0745098
0.0836601
0.0875817
0.0718954
0.0784314
0.0784314
0.0888889
0.075817
0.0862745
0.0810458
0.0862745
0.0784314
0.0901961
0.0784314
0.0888889
0.0901961
0.0901961
0.0901961
0.0928105
0.0888889
0.0915033
0.0862745
0.0901961
0.0849673
0.0797386
0.0849673
0.0915033
0.0849673
0.0849673
0.0915033
0.0862745
0.0915033
0.0901961
0.0915033
0.0915033
0.0915033
0.115033
0.0915033
0.175163
0.129412
0.247059
0.117647
0.235294
0.524183
0.0901961
0.0888889
0.0875817
0.0901961
0.0901961
0.0901961
0.0875817
0.10719
0.381699
0.163399
0.335948
0.381699
0.0862745
0.0888889
0.437908
0.473203
0.596078
0.264052
0.517647
0.183007
0.373856
0.392157
0.543791
0.14902
0.342484
0.282353
0.312418
0.138562
0.541176
0.328105
0.189542
0.2
0.164706
0.172549
0.134641
0.152941
0.112418
0.213072
0.508497
0.186928
0.407843
0.326797
0.122876
0.356863
0.267974
0.495425
0.216993
0.244444
0.179085
0.456209
0.211765
0.524183
0.0901961
0.0901961
0.0928105
0.0928105
0.253595
0.406536
0.0915033
0.0928105
0.0915033
0.0901961
0.0797386
0.0941176
0.0928105
0.0915033
0.0954248
0.0888889
0.0928105
0.0901961
0.112418
0.220915
0.100654
0.101961
0.196078
0.504575
0.14902
0.0928105
0.108497
0.0993464
0.375163
0.121569
0.224837
0.236601
0.0941176
0.096732
0.0928105
0.124183
0.0954248
0.0875817
0.096732
0.0941176
0.100654
0.20915
0.0993464
0.171242
0.236601
0.245752
0.112418
0.205229
0.335948
0.216993
0.482353
0.218301
0.369935
0.275817
0.197386
0.304575
0.240523
0.456209
0.312418
0.24183
0.403922
0.121569
0.112418
0.227451
0.247059
0.475817
0.423529
0.14902
0.40915
0.130719
0.282353
0.163399
0.210458
0.154248
0.186928
0.164706
0.419608
0.164706
0.183007
0.135948
0.11634
0.215686
0.154248
0.10719
0.163399
0.164706
0.155556
0.154248
0.133333
0.155556
0.186928
0.137255
0.189542
0.176471
0.138562
0.146405
0.154248
0.146405
0.151634
0.134641
0.103268
0.228758
0.169935
0.216993
0.146405
0.176471
0.184314
0.185621
0.186928
0.233987
0.130719
0.185621
0.145098
0.177778
0.168627
0.129412
0.288889
0.171242
0.169935
0.188235
0.154248
0.126797
0.171242
0.180392
0.132026
0.118954
0.141176
0.264052
0.215686
0.171242
0.15817
0.168627
0.151634
0.164706
0.206536
0.159477
0.207843
0.189542
0.181699
0.171242
0.205229
0.163399
0.156863
0.265359
0.211765
0.179085
0.205229
0.186928
0.226144
0.258824
0.177778
0.175163
0.19085
0.205229
0.177778
0.213072
0.249673
0.239216
0.177778
0.184314
0.177778
0.227451
0.177778
0.155556
0.216993
0.159477
0.163399
0.160784
0.260131
0.256209
0.206536
0.245752
0.188235
0.20915
0.233987
0.203922
0.24183
0.183007
0.291503
0.169935
0.228758
0.196078
0.227451
0.252288
0.211765
0.243137
0.226144
0.236601
0.124183
0.28366
0.128105
0.262745
0.243137
0.237908
0.197386
0.11634
0.237908
0.173856
0.230065
0.171242
0.20915
0.223529
0.194771
0.223529
0.248366
0.19085
0.201307
0.171242
0.193464
0.202614
0.235294
0.179085
0.171242
0.11634
0.211765
0.112418
0.14902
0.186928
0.23268
0.129412
0.185621
0.214379
0.11634
0.281046
0.284967
0.214379
0.254902
0.253595
0.320261
0.164706
0.244444
0.2
0.175163
0.338562
0.35817
0.108497
0.211765
0.113725
0.203922
0.16732
0.207843
0.338562
0.202614
0.231373
0.163399
0.218301
0.16732
0.228758
0.258824
0.156863
0.126797
0.180392
0.19085
0.152941
0.126797
0.160784
0.226144
0.128105
0.124183
0.160784
0.142484
0.16732
0.162092
0.130719
0.108497
0.175163
0.120261
0.129412
0.156863
0.16732
0.117647
0.168627
0.117647
0.159477
0.2
0.138562
0.124183
0.16732
0.166013
0.155556
0.198693
0.206536
0.258824
0.173856
0.207843
0.185621
0.224837
0.322876
0.213072
0.19085
0.262745
0.228758
0.211765
0.20915
0.222222
0.237908
0.228758
0.175163
0.237908
0.214379
0.171242
0.211765
0.133333
0.139869
0.166013
0.155556
0.288889
0.159477
0.132026
0.115033
0.134641
0.133333
0.189542
0.146405
0.168627
0.269281
0.176471
0.139869
0.300654
0.134641
0.31634
0.194771
0.376471
0.273203
0.424837
0.193464
0.586928
0.543791
0.155556
0.281046
0.535948
0.171242
0.145098
0.32549
0.105882
0.322876
0.356863
0.10719
0.096732
0.103268
0.0980392
0.0980392
0.0993464
0.0954248
0.261438
0.101961
0.0980392
0.109804
0.223529
0.0993464
0.219608
0.405229
0.231373
0.239216
0.467974
0.504575
0.419608
0.237908
0.270588
0.406536
0.166013
0.137255
0.146405
0.236601
0.266667
0.422222
0.103268
0.104575
0.104575
0.105882
0.0941176
0.10719
0.0954248
0.104575
0.0993464
0.103268
0.104575
0.104575
0.104575
0.103268
0.104575
0.364706
0.143791
0.260131
0.104575
0.413072
0.223529
0.376471
0.532026
0.295425
0.25098
0.295425
0.368627
0.236601
0.243137
0.416993
0.12549
0.333333
0.364706
0.135948
0.128105
0.12549
0.141176
0.169935
0.175163
0.124183
0.143791
0.141176
0.12549
0.128105
0.112418
0.431373
0.108497
0.112418
0.243137
0.198693
0.188235
0.249673
0.137255
0.560784
0.610458
0.615686
0.163399
0.50719
0.447059
0.423529
0.420915
0.287582
0.193464
0.462745
0.583007
0.416993
0.133333
0.671895
0.460131
0.543791
0.139869
0.214379
0.171242
0.30719
0.372549
0.589542
0.318954
0.108497
0.109804
0.282353
0.603922
0.108497
0.120261
0.105882
0.100654
0.105882
0.108497
0.10719
0.10719
0.121569
0.113725
0.111111
0.111111
0.118954
0.11634
0.132026
0.11634
0.109804
0.269281
0.301961
0.120261
0.115033
0.113725
0.118954
0.120261
0.113725
0.113725
0.120261
0.115033
0.118954
0.112418
0.112418
0.120261
0.105882
0.100654
0.122876
0.111111
0.129412
0.117647
0.12549
0.118954
0.12549
0.132026
0.122876
0.112418
0.128105
0.120261
0.133333
0.132026
0.12549
0.117647
0.121569
0.11634
0.118954
0.122876
0.120261
0.117647
0.109804
0.172549
0.135948
0.113725
0.132026
0.115033
0.19085
0.126797
0.118954
0.126797
0.117647
0.126797
0.118954
0.126797
0.124183
0.11634
0.403922
0.118954
0.121569
0.300654
0.407843
0.121569
0.121569
0.122876
0.122876
0.120261
0.122876
0.124183
0.324183
0.29281
0.454902
0.368627
0.30719
0.406536
0.332026
0.294118
0.339869
0.32549
0.339869
0.45098
0.121569
0.11634
0.115033
0.345098
0.447059
0.185621
0.533333
0.166013
0.388235
0.173856
0.354248
0.185621
0.288889
0.132026
0.233987
0.36732
0.253595
0.179085
0.112418
0.113725
0.220915
0.115033
0.143791
0.124183
0.304575
0.171242
0.381699
0.281046
0.324183
0.156863
0.393464
0.372549
0.206536
0.517647
0.460131
0.188235
0.359477
0.405229
0.142484
0.117647
0.133333
0.345098
0.133333
0.205229
0.168627
0.220915
0.173856
0.169935
0.160784
0.181699
0.169935
0.137255
0.163399
0.124183
0.427451
0.150327
0.447059
0.256209
0.181699
0.299346
0.431373
0.173856
0.321569
0.290196
0.411765
0.381699
0.171242
0.383007
0.332026
0.275817
0.183007
0.154248
0.142484
0.126797
0.117647
0.122876
0.132026
0.117647
0.192157
0.124183
0.248366
0.215686
0.181699
0.196078
0.227451
0.130719
0.120261
0.14902
0.124183
0.211765
0.143791
0.124183
0.447059
0.126797
0.244444
0.192157
0.244444
0.120261
0.27451
0.266667
0.196078
0.25098
0.343791
0.457516
0.312418
0.210458
0.256209
0.206536
0.164706
0.138562
0.134641
0.129412
0.12549
0.122876
0.160784
0.249673
0.257516
0.296732
0.29281
0.143791
0.12549
0.304575
0.25098
0.317647
0.345098
0.366013
0.309804
0.264052
0.271895
0.271895
0.270588
0.282353
0.284967
0.326797
0.320261
0.360784
0.329412
0.389542
0.333333
0.465359
0.422222
0.428758
0.328105
0.287582
0.393464
0.287582
0.337255
0.275817
0.28366
0.278431
0.311111
0.328105
0.324183
0.322876
0.32549
0.296732
0.303268
0.262745
0.317647
0.315033
0.30719
0.329412
0.277124
0.305882
0.282353
0.351634
0.262745
0.366013
0.385621
0.334641
0.278431
0.393464
0.216993
0.505882
0.440523
0.396078
0.362092
0.420915
0.36732
0.203922
0.458824
0.351634
0.237908
0.28366
0.244444
0.407843
0.247059
0.198693
0.23268
0.243137
0.481046
0.422222
0.231373
0.205229
0.298039
0.206536
0.301961
0.175163
0.145098
0.258824
0.206536
0.210458
0.193464
0.401307
0.318954
0.223529
0.239216
0.335948
0.197386
0.303268
0.256209
0.296732
0.166013
0.270588
0.303268
0.326797
0.31634
0.189542
0.19085
0.173856
0.180392
0.226144
0.197386
0.247059
0.101961
0.177778
0.150327
0.156863
0.175163
0.101961
0.363399
0.304575
0.245752
0.103268
0.126797
0.112418
0.0954248
0.103268
0.105882
0.100654
0.103268
0.206536
0.111111
0.138562
0.10719
0.112418
0.334641
0.231373
0.129412
0.104575
0.145098
0.318954
0.284967
0.273203
0.105882
0.247059
0.328105
0.626144
0.505882
0.096732
0.529412
0.103268
0.105882
0.104575
0.105882
0.103268
0.705882
0.101961
0.103268
0.490196
0.420915
0.637908
0.311111
0.155556
0.452288
0.411765
0.291503
0.377778
0.422222
0.305882
0.243137
0.341176
0.460131
0.315033
0.491503
0.244444
0.288889
0.206536
0.27451
0.258824
0.315033
0.235294
0.300654
0.30719
0.363399
0.376471
0.32549
0.269281
0.333333
0.401307
0.379085
0.332026
0.341176
0.273203
0.385621
0.338562
0.329412
0.295425
0.23268
0.273203
0.288889
0.237908
0.415686
0.25098
0.28366
0.235294
0.332026
0.258824
0.256209
0.312418
0.20915
0.287582
0.290196
0.273203
0.309804
0.305882
0.586928
0.313725
0.328105
0.261438
0.243137
0.28366
0.320261
0.392157
0.291503
0.260131
0.300654
0.508497
0.380392
0.269281
0.355556
0.48366
0.286275
0.101961
0.296732
0.185621
0.128105
0.341176
0.585621
0.105882
0.524183
0.198693
0.100654
0.100654
0.0993464
0.414379
0.115033
0.471895
0.396078
0.563399
0.606536
0.581699
0.431373
0.652288
0.657516
0.6
0.219608
0.656209
0.47451
0.529412
0.322876
0.491503
0.573856
0.545098
0.322876
0.550327
0.29281
0.427451
0.665359
0.60915
0.532026
0.444444
0.380392
0.443137
0.48366
0.111111
0.369935
0.426144
0.129412
0.528105
0.277124
0.530719
0.10719
0.151634
0.109804
0.278431
0.133333
0.109804
0.227451
0.112418
0.184314
0.8
0.332026
0.764706
0.155556
0.559477
0.20915
0.329412
0.320261
0.275817
0.261438
0.202614