# vtk DataFile Version 1.0
Unstructured Grid Example
ASCII

DATASET UNSTRUCTURED_GRID
POINTS 4826 float
0 400 0
5 400 0
9 400 0
13 400 0
16 400 0
19 400 0
22 400 0
25 400 0
28 400 0
31 400 0
35 400 0
38 400 0
41 400 0
44 400 0
47 400 0
51 400 0
54 400 0
57 400 0
60 400 0
63 400 0
66 400 0
69 400 0
72 400 0
75 400 0
78 400 0
82 400 0
85 400 0
89 400 0
93 400 0
96 400 0
99 400 0
102 400 0
105 400 0
108 400 0
111 400 0
114 400 0
117 400 0
120 400 0
123 400 0
127 400 0
131 400 0
136 400 0
139 400 0
144 400 0
147 400 0
150 400 0
155 400 0
160 400 0
163 400 0
167 400 0
170 400 0
174 400 0
177 400 0
181 400 0
184 400 0
187 400 0
190 400 0
195 400 0
199 400 0
203 400 0
208 400 0
212 400 0
217 400 0
221 400 0
224 400 0
229 400 0
232 400 0
235 400 0
238 400 0
243 400 0
246 400 0
250 400 0
254 400 0
258 400 0
261 400 0
264 400 0
268 400 0
272 400 0
277 400 0
281 400 0
284 400 0
287 400 0
290 400 0
293 400 0
296 400 0
301 400 0
305 400 0
308 400 0
311 400 0
314 400 0
318 400 0
321 400 0
326 400 0
331 400 0
334 400 0
337 400 0
340 400 0
344 400 0
347 400 0
351 400 0
355 400 0
359 400 0
362 400 0
365 400 0
368 400 0
371 400 0
374 400 0
379 400 0
383 400 0
386 400 0
390 400 0
393 400 0
398 400 0
7 399 0
87 399 0
125 399 0
129 399 0
133 399 0
142 399 0
153 399 0
172 399 0
179 399 0
205 399 0
210 399 0
226 399 0
241 399 0
256 399 0
270 399 0
329 399 0
395 399 0
400 399 0
33 398 0
49 398 0
80 398 0
91 398 0
219 398 0
279 398 0
299 398 0
324 398 0
342 398 0
353 398 0
377 398 0
388 398 0
0 397 0
3 397 0
9 397 0
12 397 0
26 397 0
29 397 0
44 397 0
55 397 0
58 397 0
61 397 0
65 397 0
69 397 0
72 397 0
83 397 0
100 397 0
103 397 0
107 397 0
110 397 0
117 397 0
127 397 0
131 397 0
135 397 0
157 397 0
160 397 0
166 397 0
170 397 0
175 397 0
182 397 0
185 397 0
193 397 0
197 397 0
200 397 0
208 397 0
212 397 0
215 397 0
235 397 0
239 397 0
247 397 0
251 397 0
254 397 0
260 397 0
265 397 0
274 397 0
286 397 0
302 397 0
306 397 0
309 397 0
312 397 0
315 397 0
334 397 0
337 397 0
348 397 0
359 397 0
370 397 0
373 397 0
392 397 0
397 397 0
6 396 0
38 396 0
47 396 0
51 396 0
75 396 0
86 396 0
96 396 0
113 396 0
121 396 0
124 396 0
139 396 0
143 396 0
146 396 0
149 396 0
178 396 0
190 396 0
204 396 0
224 396 0
229 396 0
232 396 0
243 396 0
257 396 0
269 396 0
277 396 0
281 396 0
289 396 0
294 396 0
318 396 0
322 396 0
327 396 0
340 396 0
344 396 0
351 396 0
356 396 0
380 396 0
17 395 0
21 395 0
32 395 0
41 395 0
67 395 0
81 395 0
105 395 0
129 395 0
133 395 0
162 395 0
173 395 0
195 395 0
272 395 0
299 395 0
330 395 0
364 395 0
367 395 0
385 395 0
388 395 0
395 395 0
400 395 0
0 394 0
10 394 0
28 394 0
44 394 0
58 394 0
64 394 0
70 394 0
89 394 0
101 394 0
152 394 0
199 394 0
206 394 0
209 394 0
212 394 0
220 394 0
234 394 0
264 394 0
284 394 0
336 394 0
347 394 0
360 394 0
372 394 0
376 394 0
7 393 0
36 393 0
61 393 0
73 393 0
78 393 0
84 393 0
93 393 0
97 393 0
108 393 0
112 393 0
125 393 0
138 393 0
142 393 0
147 393 0
157 393 0
177 393 0
186 393 0
190 393 0
217 393 0
229 393 0
237 393 0
243 393 0
248 393 0
276 393 0
280 393 0
316 393 0
321 393 0
326 393 0
343 393 0
350 393 0
354 393 0
391 393 0
4 392 0
25 392 0
50 392 0
55 392 0
117 392 0
121 392 0
164 392 0
168 392 0
203 392 0
223 392 0
240 392 0
256 392 0
288 392 0
296 392 0
303 392 0
311 392 0
333 392 0
397 392 0
14 391 0
18 391 0
30 391 0
41 391 0
104 391 0
129 391 0
135 391 0
160 391 0
174 391 0
182 391 0
194 391 0
214 391 0
226 391 0
232 391 0
252 391 0
261 391 0
266 391 0
270 391 0
307 391 0
338 391 0
363 391 0
369 391 0
89 390 0
144 390 0
219 390 0
278 390 0
292 390 0
357 390 0
400 390 0
45 389 0
58 389 0
65 389 0
70 389 0
78 389 0
84 389 0
94 389 0
110 389 0
114 389 0
156 389 0
178 389 0
185 389 0
189 389 0
210 389 0
243 389 0
282 389 0
299 389 0
327 389 0
347 389 0
374 389 0
381 389 0
386 389 0
391 389 0
0 388 0
51 388 0
119 388 0
124 388 0
138 388 0
148 388 0
165 388 0
170 388 0
199 388 0
315 388 0
351 388 0
8 387 0
26 387 0
74 387 0
98 387 0
133 387 0
161 387 0
223 387 0
228 387 0
238 387 0
250 387 0
254 387 0
258 387 0
274 387 0
286 387 0
295 387 0
342 387 0
361 387 0
366 387 0
397 387 0
31 386 0
128 386 0
153 386 0
203 386 0
207 386 0
219 386 0
264 386 0
306 386 0
320 386 0
336 386 0
20 385 0
37 385 0
143 385 0
174 385 0
179 385 0
189 385 0
193 385 0
232 385 0
278 385 0
330 385 0
355 385 0
58 384 0
64 384 0
69 384 0
81 384 0
94 384 0
105 384 0
184 384 0
198 384 0
213 384 0
270 384 0
290 384 0
301 384 0
325 384 0
0 383 0
44 383 0
88 383 0
111 383 0
123 383 0
138 383 0
236 383 0
247 383 0
158 382 0
163 382 0
241 382 0
254 382 0
259 382 0
313 382 0
375 382 0
386 382 0
400 382 0
7 381 0
14 381 0
52 381 0
132 381 0
170 381 0
206 381 0
210 381 0
219 381 0
226 381 0
232 381 0
264 381 0
341 381 0
347 381 0
369 381 0
393 381 0
118 380 0
145 380 0
180 380 0
190 380 0
196 380 0
202 380 0
321 380 0
151 379 0
185 379 0
244 379 0
249 379 0
282 379 0
298 379 0
361 379 0
24 378 0
35 378 0
74 378 0
273 378 0
330 378 0
0 377 0
60 377 0
67 377 0
92 377 0
101 377 0
162 377 0
175 377 0
205 377 0
209 377 0
213 377 0
217 377 0
221 377 0
225 377 0
235 377 0
308 377 0
353 377 0
85 376 0
193 376 0
199 376 0
230 376 0
267 376 0
292 376 0
44 375 0
123 375 0
130 375 0
142 375 0
182 375 0
239 375 0
246 375 0
255 375 0
316 375 0
52 374 0
107 374 0
148 374 0
393 374 0
9 373 0
136 373 0
158 373 0
203 373 0
208 373 0
215 373 0
227 373 0
260 373 0
341 373 0
369 373 0
168 372 0
188 372 0
220 372 0
250 372 0
302 372 0
400 372 0
116 371 0
153 371 0
177 371 0
193 371 0
200 371 0
211 371 0
233 371 0
245 371 0
0 370 0
29 370 0
78 370 0
229 370 0
237 370 0
274 370 0
289 370 0
69 369 0
196 369 0
203 369 0
216 369 0
241 369 0
282 369 0
384 369 0
95 368 0
124 368 0
131 368 0
160 368 0
184 368 0
191 368 0
207 368 0
213 368 0
224 368 0
254 368 0
175 367 0
200 367 0
220 367 0
228 367 0
235 367 0
246 367 0
250 367 0
261 367 0
267 367 0
310 367 0
321 367 0
332 367 0
42 366 0
60 366 0
145 366 0
155 366 0
165 366 0
171 366 0
179 366 0
232 366 0
7 365 0
103 365 0
111 365 0
187 365 0
205 365 0
208 365 0
211 365 0
214 365 0
217 365 0
222 365 0
239 365 0
242 365 0
392 365 0
17 364 0
191 364 0
201 364 0
227 364 0
296 364 0
400 364 0
159 363 0
175 363 0
184 363 0
194 363 0
198 363 0
219 363 0
230 363 0
234 363 0
245 363 0
248 363 0
254 363 0
283 363 0
139 362 0
170 362 0
179 362 0
203 362 0
207 362 0
212 362 0
223 362 0
237 362 0
267 362 0
273 362 0
349 362 0
131 361 0
151 361 0
165 361 0
190 361 0
200 361 0
226 361 0
232 361 0
240 361 0
257 361 0
262 361 0
89 360 0
145 360 0
156 360 0
173 360 0
186 360 0
193 360 0
197 360 0
209 360 0
214 360 0
217 360 0
220 360 0
235 360 0
245 360 0
252 360 0
315 360 0
31 359 0
118 359 0
177 359 0
183 359 0
205 359 0
230 359 0
249 359 0
289 359 0
363 359 0
382 359 0
79 358 0
125 358 0
169 358 0
190 358 0
195 358 0
199 358 0
202 358 0
222 358 0
227 358 0
233 358 0
240 358 0
255 358 0
279 358 0
329 358 0
0 357 0
102 357 0
110 357 0
162 357 0
172 357 0
180 357 0
214 357 0
219 357 0
236 357 0
244 357 0
262 357 0
269 357 0
274 357 0
307 357 0
135 356 0
150 356 0
154 356 0
158 356 0
166 356 0
177 356 0
184 356 0
187 356 0
193 356 0
204 356 0
208 356 0
211 356 0
225 356 0
247 356 0
252 356 0
258 356 0
143 355 0
190 355 0
196 355 0
199 355 0
239 355 0
242 355 0
265 355 0
400 355 0
171 354 0
175 354 0
179 354 0
206 354 0
220 354 0
228 354 0
231 354 0
256 354 0
284 354 0
130 353 0
148 353 0
156 353 0
168 353 0
185 353 0
202 353 0
212 353 0
216 353 0
223 353 0
235 353 0
244 353 0
248 353 0
252 353 0
270 353 0
291 353 0
300 353 0
47 352 0
159 352 0
162 352 0
165 352 0
173 352 0
181 352 0
189 352 0
192 352 0
196 352 0
226 352 0
241 352 0
259 352 0
276 352 0
63 351 0
140 351 0
153 351 0
177 351 0
207 351 0
229 351 0
233 351 0
263 351 0
319 351 0
97 350 0
115 350 0
122 350 0
134 350 0
150 350 0
168 350 0
171 350 0
199 350 0
219 350 0
238 350 0
245 350 0
250 350 0
253 350 0
257 350 0
268 350 0
272 350 0
88 349 0
106 349 0
146 349 0
155 349 0
161 349 0
165 349 0
190 349 0
214 349 0
222 349 0
231 349 0
235 349 0
242 349 0
248 349 0
261 349 0
265 349 0
287 349 0
307 349 0
340 349 0
138 348 0
158 348 0
175 348 0
196 348 0
209 348 0
225 348 0
252 348 0
275 348 0
280 348 0
13 347 0
130 347 0
153 347 0
180 347 0
185 347 0
205 347 0
217 347 0
233 347 0
255 347 0
269 347 0
328 347 0
142 346 0
145 346 0
148 346 0
162 346 0
166 346 0
169 346 0
172 346 0
192 346 0
201 346 0
241 346 0
245 346 0
248 346 0
251 346 0
261 346 0
391 346 0
27 345 0
120 345 0
126 345 0
155 345 0
158 345 0
176 345 0
221 345 0
238 345 0
254 345 0
258 345 0
267 345 0
273 345 0
277 345 0
296 345 0
357 345 0
374 345 0
111 344 0
135 344 0
150 344 0
164 344 0
212 344 0
228 344 0
235 344 0
263 344 0
270 344 0
102 343 0
138 343 0
141 343 0
144 343 0
147 343 0
153 343 0
161 343 0
167 343 0
181 343 0
205 343 0
216 343 0
232 343 0
242 343 0
252 343 0
282 343 0
289 343 0
0 342 0
95 342 0
158 342 0
171 342 0
189 342 0
194 342 0
198 342 0
245 342 0
249 342 0
255 342 0
258 342 0
261 342 0
267 342 0
277 342 0
301 342 0
73 341 0
127 341 0
132 341 0
185 341 0
237 341 0
270 341 0
285 341 0
311 341 0
86 340 0
122 340 0
135 340 0
140 340 0
144 340 0
147 340 0
150 340 0
209 340 0
223 340 0
242 340 0
247 340 0
264 340 0
274 340 0
280 340 0
153 339 0
156 339 0
165 339 0
169 339 0
179 339 0
205 339 0
229 339 0
234 339 0
250 339 0
259 339 0
293 339 0
322 339 0
117 338 0
130 338 0
137 338 0
142 338 0
161 338 0
175 338 0
192 338 0
215 338 0
219 338 0
253 338 0
256 338 0
269 338 0
112 337 0
125 337 0
134 337 0
147 337 0
150 337 0
200 337 0
244 337 0
261 337 0
264 337 0
276 337 0
283 337 0
102 336 0
144 336 0
211 336 0
240 336 0
247 336 0
258 336 0
267 336 0
271 336 0
279 336 0
289 336 0
296 336 0
340 336 0
95 335 0
121 335 0
128 335 0
131 335 0
153 335 0
171 335 0
286 335 0
400 335 0
139 334 0
142 334 0
146 334 0
158 334 0
165 334 0
180 334 0
187 334 0
194 334 0
204 334 0
218 334 0
223 334 0
232 334 0
250 334 0
262 334 0
265 334 0
273 334 0
276 334 0
304 334 0
313 334 0
110 333 0
116 333 0
124 333 0
133 333 0
136 333 0
149 333 0
200 333 0
245 333 0
253 333 0
257 333 0
[...]
CELL_DATA 4826
COLOR_SCALARS lut 1
0.0346595
0.0395017
0.042475
0.043954
0.0442533
0.0441194
0.0437539
0.0433112
0.0428812
0.0425078
0.0421189
0.0419032
0.0417428
0.0416267
0.0415444
0.0414727
0.0414384
0.0414151
0.0413992
0.0413882
0.0413803
0.0413743
0.0413691
0.0413641
0.0413588
0.0413508
0.0413438
0.0413328
0.0413194
0.0413078
0.0412944
0.041279
0.041261
0.0412401
0.0412156
0.0411873
0.0411544
0.0411165
0.0410725
0.0410026
0.04092
0.0408067
0.0407328
0.040596
0.0405051
0.0404102
0.0402558
0.0401072
0.0400039
0.0398327
0.0396832
0.0394758
0.0393172
0.039104
0.0389736
0.0388827
0.0388242
0.0387927
0.0387769
0.0385628
0.0381972
0.0379816
0.0377784
0.0376485
0.0376023
0.037679
0.0378148
0.0379961
0.0381881
0.0384811
0.0386666
0.0389573
0.0392677
0.0395779
0.03979
0.03998
0.0402134
0.0404193
0.0406375
0.0407938
0.040913
0.041045
0.0411993
0.0413803
0.0415789
0.041774
0.0416563
0.0415487
0.0414658
0.0414107
0.0413708
0.0413575
0.0413527
0.0413592
0.0413661
0.0413754
0.041388
0.0414133
0.0414416
0.0414987
0.0415902
0.0417357
0.0418958
0.0421122
0.0423948
0.0427472
0.0431593
0.0438783
0.0442759
0.0442755
0.0435278
0.0422416
0.0391474
0.0473077
0.047492
0.0471308
0.0470382
0.0469339
0.0466658
0.0462612
0.0453765
0.0449277
0.0438945
0.0435428
0.043023
0.0439294
0.0451937
0.0462652
0.047511
0.0467441
0.0427013
0.055623
0.0544923
0.0542759
0.0542339
0.0490259
0.0533315
0.0545667
0.0542618
0.05434
0.0545422
0.0573897
0.0576452
0.051473
0.0559028
0.0634631
0.0654591
0.064654
0.0639734
0.0620877
0.0617478
0.0617121
0.0616875
0.0616655
0.0616506
0.0616413
0.0616049
0.0615002
0.0614716
0.0614259
0.0613851
0.0612626
0.0609971
0.060853
0.0606967
0.0596013
0.0594466
0.0590536
0.0587162
0.0582651
0.0576066
0.0573786
0.0569677
0.0568317
0.0567004
0.0559832
0.0557114
0.0555437
0.0558553
0.0562839
0.0571082
0.0576173
0.058015
0.0587902
0.0593336
0.0601341
0.060898
0.0618844
0.0617796
0.0616988
0.0616418
0.0616087
0.0616329
0.0616506
0.0617884
0.0622714
0.0637432
0.0643793
0.0628842
0.0573226
0.0678706
0.0706189
0.0698888
0.0697405
0.0695118
0.0694625
0.0693908
0.0691558
0.0689559
0.0688589
0.0681819
0.0679574
0.0677733
0.0675784
0.0651343
0.0640413
0.0630999
0.0618027
0.0619709
0.0622465
0.063588
0.0656574
0.0672171
0.0679571
0.0682513
0.0688259
0.0692435
0.0694508
0.0694546
0.0694732
0.0695611
0.0696151
0.0697932
0.0700431
0.0744836
0.0843977
0.0837002
0.0803706
0.0788169
0.0779174
0.0778516
0.0776142
0.0768571
0.0766392
0.074569
0.0733057
0.0709339
0.0754928
0.077909
0.0778504
0.0795
0.0801033
0.0839316
0.0828484
0.0748479
0.0665239
0.0721913
0.0908966
0.0909449
0.0874739
0.0868308
0.0867575
0.0867174
0.0865922
0.0864414
0.083624
0.0779774
0.0771158
0.0767892
0.0765268
0.0759038
0.0767049
0.0825578
0.0851305
0.0867094
0.0869261
0.0879189
0.090881
0.0923029
0.0957855
0.0982269
0.0960115
0.0959072
0.0958744
0.0958264
0.0957248
0.0956649
0.0954282
0.0953045
0.0946922
0.0936767
0.0933015
0.092777
0.0916918
0.0886043
0.0869838
0.0864453
0.0833239
0.0831656
0.0846586
0.0858494
0.0869479
0.0930535
0.0935549
0.0957258
0.0957594
0.0958059
0.0960464
0.0963209
0.0966064
0.0990295
0.0979897
0.112865
0.105984
0.105737
0.104504
0.104276
0.0994534
0.0987098
0.0922319
0.090011
0.0928172
0.097284
0.103666
0.104709
0.105208
0.105198
0.105426
0.0957338
0.126225
0.127065
0.12116
0.117194
0.11477
0.113164
0.11248
0.108848
0.105744
0.103564
0.101111
0.0979378
0.0970495
0.0980304
0.104092
0.10734
0.108835
0.109905
0.11494
0.115373
0.118199
0.120599
0.125211
0.12062
0.104171
0.12097
0.123474
0.127162
0.104707
0.13745
0.136123
0.13592
0.135838
0.135727
0.135625
0.135381
0.134666
0.134384
0.127421
0.120765
0.118225
0.117065
0.11205
0.115876
0.131358
0.134627
0.135588
0.136353
0.146612
0.150414
0.148996
0.140696
0.12123
0.147292
0.144129
0.143471
0.140851
0.138435
0.133908
0.131982
0.121069
0.145713
0.147503
0.160202
0.171766
0.15705
0.156274
0.151721
0.14375
0.121711
0.122169
0.126808
0.133581
0.136392
0.139233
0.147954
0.151855
0.154237
0.157407
0.161593
0.164655
0.14096
0.179628
0.162885
0.154884
0.131248
0.129947
0.127161
0.151232
0.166382
0.167232
0.167952
0.203632
0.186756
0.167708
0.15247
0.14893
0.142675
0.140559
0.133089
0.168131
0.178616
0.1821
0.190807
0.190362
0.190144
0.189706
0.188953
0.187888
0.150817
0.142211
0.136264
0.171881
0.182848
0.186768
0.189324
0.165295
0.206289
0.200392
0.197616
0.19451
0.188017
0.142821
0.153122
0.183694
0.180311
0.150026
0.166432
0.173807
0.210027
0.242426
0.2381
0.17419
0.219904
0.25184
0.226521
0.209181
0.178706
0.143589
0.141726
0.138258
0.137451
0.141365
0.186122
0.224476
0.225944
0.247572
0.219489
0.22631
0.207263
0.168878
0.156984
0.150962
0.145888
0.233025
0.207255
0.162951
0.155955
0.164663
0.221611
0.235964
0.262229
0.305442
0.284133
0.257683
0.21603
0.256681
0.218377
0.271315
0.269945
0.265974
0.26337
0.201855
0.179324
0.136977
0.134276
0.132249
0.130264
0.128419
0.128088
0.138145
0.26114
0.278425
0.278502
0.146558
0.138959
0.127162
0.210319
0.255572
0.309789
0.266282
0.25653
0.2371
0.160999
0.13701
0.150366
0.175936
0.284984
0.31226
0.289701
0.227714
0.289876
0.31472
0.254266
0.207479
0.120261
0.116016
0.111997
0.109269
0.187669
0.317534
0.3762
0.183301
0.13602
0.103684
0.147873
0.299474
0.261791
0.302486
0.212608
0.15531
0.12203
0.112401
0.103053
0.104443
0.12755
0.27902
0.434209
0.346152
0.0937164
0.105428
0.230285
0.278142
0.361351
0.106136
0.0980807
0.0895686
0.106644
0.256123
0.409241
0.352228
0.295088
0.271516
0.181986
0.120216
0.107823
0.0896952
0.0862467
0.0812122
0.139338
0.136212
0.090788
0.0779248
0.0774707
0.0845479
0.104878
0.117481
0.162782
0.18878
0.345161
0.362887
0.376161
0.462107
0.405111
0.214528
0.181524
0.156479
0.14011
0.119462
0.0758929
0.37284
0.357439
0.337059
0.0975596
0.0783845
0.0766964
0.0752253
0.0738494
0.0722967
0.0697491
0.079743
0.0842378
0.381315
0.471803
0.0874017
0.0777652
0.0662236
0.307443
0.329632
0.149315
0.110082
0.0920184
0.0804619
0.0770439
0.0665668
0.0641667
0.0658828
0.078622
0.0858201
0.106353
0.240152
0.212199
0.115237
0.0958105
0.0718182
0.0702596
0.0684468
0.0633734
0.0646456
0.155672
0.185412
0.484127
0.24369
0.157486
0.120205
0.0781204
0.0717615
0.0616297
0.0604918
0.0633276
0.105311
0.125779
0.412381
0.172438
0.133972
0.0963233
0.0784832
0.074231
0.0721691
0.068399
0.0669281
0.065703
0.0642086
0.058846
0.0645403
0.0810103
0.382478
0.621297
0.298479
0.084938
0.0780354
0.0695497
0.0596123
0.0678222
0.250828
0.620119
0.530602
0.451399
0.257485
0.0926325
0.0736421
0.0723959
0.0712979
0.0706983
0.0652075
0.0621922
0.0576572
0.0550897
0.0797855
0.186726
0.43794
0.388383
0.363896
0.326645
0.0988701
0.0831273
0.0755342
0.0705867
0.0686975
0.0551345
0.0537946
0.0984057
0.128621
0.153284
0.345618
0.185318
0.121822
0.109367
0.0997408
0.0866984
0.0752977
0.0733477
0.0738135
0.0744929
0.0738273
0.0738126
0.0734655
0.067454
0.0536017
0.0620508
0.0787542
0.140316
0.075696
0.0765161
0.0763638
0.0517404
0.0499532
0.0970151
0.40356
0.0740296
0.0725676
0.0725185
0.0795995
0.0771602
0.0693891
0.0642966
0.0635723
0.184991
0.18992
0.10639
0.0848699
0.0730619
0.0768824
0.0827717
0.0830373
0.0825051
0.0789069
0.0581684
0.0472852
0.0478063
0.0521183
0.105055
0.223877
0.285134
0.72146
0.0751636
0.0726984
0.0713634
0.0708959
0.0753927
0.0833264
0.0853183
0.0865483
0.0790978
0.0493061
0.0627042
0.125618
0.585396
0.12132
0.0797075
0.0737182
0.0911337
0.0766991
0.0664316
0.0683809
0.389881
0.357976
0.251995
0.212702
0.142346
0.0811879
0.0683707
0.070167
0.0954793
0.0944003
0.0559551
0.0458055
0.0448759
0.0469292
0.052162
0.0792224
0.0942518
0.411201
0.296414
0.0864791
0.0670818
0.0640356
0.0657734
0.0976284
0.0996524
0.0969744
0.0776662
0.0654535
0.0499234
0.0443394
0.0561687
0.065251
0.166435
0.303742
0.567584
0.108086
0.0618839
0.0781253
0.105522
0.103589
0.0971469
0.0442284
0.0943044
0.117396
0.585259
0.141664
0.0625537
0.0911037
0.101258
0.107806
0.108144
0.0775132
0.0450021
0.0683432
0.442054
0.0814722
0.0734478
0.0668868
0.0618415
0.0679562
0.0735023
0.0792123
0.115529
0.113166
0.0575021
0.0501839
0.0465081
0.0446074
0.0489581
0.545355
0.75326
0.181763
0.149103
0.0571414
0.0579795
0.0920038
0.115473
0.0681402
0.0446921
0.0454621
0.0567097
0.0717832
0.0855564
0.197861
0.835987
0.733667
0.224911
0.0953667
0.058306
0.0676999
0.117255
0.106672
0.0816185
0.0486256
0.0604427
0.274726
0.0790522
0.0707313
0.0644397
0.0597867
0.0557786
0.0636322
0.0782132
0.116037
0.120164
0.121979
0.0971007
0.0654593
0.0485639
0.0968698
0.136204
0.510005
0.318214
0.0603791
0.094405
0.136783
0.135826
0.13086
0.0628059
0.0551718
0.0484295
0.0470146
0.0470403
0.0517055
0.0723834
0.208819
0.521234
0.114474
0.0912225
0.138231
0.0893791
0.0547043
0.10114
0.274226
0.380709
0.131335
0.075773
0.0641216
0.0589424
0.0568957
0.0564953
0.122206
0.133587
0.0802586
0.067645
0.0499728
0.0596952
0.0753233
0.0602558
0.064852
0.0910296
0.10591
0.138078
0.124858
0.127813
0.111333
0.0662894
0.0533729
0.133657
0.351602
0.1408
0.0842905
0.0652118
0.0596071
0.0824523
0.133642
0.155348
0.129397
0.136747
0.0655719
0.0605542
0.0541402
0.160219
0.0983541
0.0688025
0.0602692
0.0625182
0.136679
0.0934926
0.0587991
0.0567934
0.0598117
0.076077
0.21932
0.0610756
0.124157
0.11258
0.0918345
0.0670815
0.0585125
0.0572673
0.0638619
0.0953123
0.131234
0.572593
0.268494
0.101838
0.0784532
0.0704494
0.0756854
0.143637
0.0797225
0.525386
0.0623122
0.0641017
0.0682613
0.0964188
0.126035
0.178525
0.182436
0.163761
0.128305
0.14272
0.15565
0.150787
0.0979003
0.0716923
0.0678195
0.0606592
0.0606332
0.168005
0.236721
0.141623
0.110116
0.081608
0.0637015
0.0624098
0.0775985
0.141785
0.120521
0.0971301
0.0871124
0.0647793
0.0981371
0.0710811
0.073016
0.127564
0.0728902
0.0682206
0.0632964
0.0696879
0.0763569
0.112003
0.360088
0.644521
0.0636924
0.106932
0.175195
0.161026
0.0920019
0.0677876
0.174549
0.589077
1
0.292358
0.139941
0.0856299
0.0692937
0.0634036
0.0683833
0.074633
0.0896939
0.135601
0.134893
0.146156
0.165517
0.0899494
0.0784629
0.116418
0.458577
0.0955753
0.0736012
0.111412
0.193124
0.212279
0.196238
0.161062
0.132634
0.16067
0.117273
0.088999
0.081604
0.0703535
0.0672047
0.0682134
0.794671
0.22361
0.0635859
0.0691181
0.178618
0.153698
0.0796674
0.0667919
0.0844162
0.121264
0.214235
0.062865
0.0907984
0.0679965
0.0728319
0.144277
0.0690341
0.0649086
0.0630074
0.0843662
0.123437
0.160869
0.233684
0.148445
0.152815
0.155565
0.0794231
0.0729519
0.0675108
0.138691
0.0900954
0.0660141
0.0717884
0.114617
0.147076
0.216736
0.126624
0.113071
0.0729467
0.0915584
0.355132
0.759861
0.165911
0.106832
0.0726942
0.259599
0.206429
0.157071
0.214367
0.154579
0.102306
0.0744715
0.0677476
0.0671392
0.846349
0.294746
0.0622424
0.0935855
0.187743
0.201542
0.150482
0.196876
0.788542
0.0732294
0.0650791
0.0624949
0.0667831
0.150173
0.250525
0.223144
0.0915483
0.0678724
0.0715753
0.107146
0.214745
0.0752917
0.0892201
0.184021
0.16893
0.067103
0.0828807
0.123578
0.0869066
0.0749241
0.0655547
0.0628534
0.0658107
0.144494
0.207778
0.145478
0.116479
0.0780467
0.0717075
0.516775
0.159699
0.0622487
0.0735282
0.198428
0.240147
0.190578
0.206382
0.393681
0.307638
0.233741
0.207647
0.0979167
0.0728027
0.0740045
0.0806045
0.257039
0.617195
0.0836205
0.063341
0.0674398
0.0739697
0.190711
0.309869
0.25106
0.19215
0.0699478
0.0683232
0.0691063
0.0944648
0.0663807
0.0951118
0.133844
0.285477
0.268156
0.132527
0.115668
0.301407
0.0993147
0.0634313
0.244018
0.235115
0.0685836
0.0709304
0.137015
0.601596
0.22362
0.156902
0.0705006
0.0629769
0.0708843
0.0911695
0.190405
0.316153
0.235392
0.266784
0.1026
0.0788314
0.0702776
0.079575
0.112931
0.121995
0.264642
0.229415
0.184636
0.133231
0.0707696
0.756302
0.0678096
0.0709753
0.0681367
0.0886592
0.217323
0.071817
0.0652211
0.0630603
0.0815008
0.251497
0.0948774
0.0813561
0.414183
0.169996
0.121435
0.2818
0.293777
0.293932
0.133969
0.0711911
0.11526
0.284408
0.123578
0.0758587
0.0731672
0.102973
0.342996
0.243601
0.0733571
0.0696893
0.0827365
0.149047
0.253114
0.0935049
0.0667884
0.067858
0.183874
0.237984
0.296525
0.215795
0.496391
0.0643952
0.323461
0.0870536
0.0709986
0.0725462
0.0728415
0.0768505
0.323609
0.277611
0.239614
0.244039
0.189171
0.0779691
0.0869744
0.810258
0.173061
0.106698
0.0706027
0.097165
0.150631
0.113919
0.104053
0.144865
0.198928
0.502103
0.302536
0.0780505
0.147898
0.317865
0.0941792
0.0748872
0.0763483
0.308715
0.614356
0.0665339
0.0669457
0.247977
0.232162
0.114059
0.0707011
0.096965
0.121366
0.208543
0.289991
0.0908755
0.577991
0.0789107
0.0752748
0.231571
0.0840913
0.07819
0.0776834
0.0818377
0.119463
0.147941
0.0885061
0.326121
0.307326
0.27841
0.21123
0.264006
0.345279
0.1267
0.163294
0.360464
0.228723
0.0946724
0.0682782
0.0715457
0.174724
0.32333
0.24868
0.17423
0.7134
0.0793895
0.202765
0.341422
0.0797242
0.0793695
0.694039
0.0698724
0.143326
0.229405
0.112647
0.0926476
0.0821793
0.0953554
0.12246
0.257558
0.0992818
0.0860293
0.111985
0.252857
0.276862
0.306735
0.281559
0.071752
0.0726691
0.263841
0.206449
0.196281
0.190252
0.170678
0.185605
0.372363
0.479631
0.246014
0.0775832
0.332383
0.109904
0.138182
0.102703
0.0699
0.0978407
0.204195
0.225045
0.216537
0.0930602
0.0811078
0.0841986
0.680299
0.0713115
0.0787054
0.125327
0.175429
0.200993
0.0796604
0.0953944
0.11782
0.172935
0.0725887
0.168077
0.252129
0.179803
0.26472
0.346658
0.65619
0.865543
0.080867
0.0699081
0.178239
0.136343
0.087665
0.237296
0.562016
0.287599
0.0705824
0.236077
0.256666
0.0796595
0.0813103
0.218472
0.0996116
0.075341
0.0847385
0.103998
0.145023
0.345215
0.265266
0.158939
0.32992
0.280352
0.201258
0.159433
0.123258
0.069991
0.152777
0.163747
0.191198
0.11176
0.0855419
0.0898729
0.298409
0.164967
0.0816657
0.115036
0.0792456
0.0718186
0.0765633
0.0950331
0.223271
0.296527
0.236091
0.206094
0.146114
0.231863
0.311163
0.154778
0.341073
0.35486
0.16415
0.0898599
0.071607
0.138568
0.0835515
0.079891
0.0913865
0.11139
0.122691
0.166943
0.142758
0.157131
0.180442
0.265042
0.245418
0.141584
0.245176
0.0732402
0.0779549
0.092292
0.332765
0.223996
0.29517
0.208855
0.111452
0.0810881
0.205003
0.0892558
0.0698472
0.163718
0.130067
0.342687
0.0835955
0.0976824
0.465225
0.0750497
0.125605
0.222342
0.0858696
0.665318
0.141299
0.109461
0.085048
0.10749
0.239829
0.237766
0.200511
0.130006
0.153677
0.348221
0.104566
0.127256
0.0809517
0.0726434
0.0698056
0.276673
0.134214
0.194963
0.288408
0.15767
0.680977
0.0770309
0.133543
0.170794
0.17588
0.274067
0.0885772
0.0807146
0.0823886
0.0940242
0.158827
0.221461
0.492825
0.551273
0.172544
0.287518
0.254294
0.147605
0.128639
0.117223
0.0911909
0.0753519
0.0693932
0.0957143
0.12492
0.121459
0.232423
0.0725853
0.182458
0.286555
0.237588
0.123794
0.134054
0.234259
0.230198
0.0947261
0.0847161
0.0800105
0.114671
0.227906
0.156434
0.171685
0.2055
0.351083
0.333842
0.0850239
0.137577
0.207388
0.143716
0.0796496
0.103784
0.149733
0.257096
0.534442
0.682466
0.406681
0.174047
0.119592
0.0829813
0.0696946
0.270574
0.247664
0.141611
0.311381
0.109367
0.295804
0.0685628
0.0885037
0.249311
0.141309
0.184641
0.0845889
0.072784
0.104958
0.23321
0.137029
0.168344
0.24936
0.0966385
0.0866307
0.182451
0.0854513
0.0688441
0.144569
0.237439
0.174387
0.210454
0.26635
0.180584
0.0803217
0.0799311
0.210262
0.115305
0.0673551
0.119024
0.185262
0.146006
0.346047
0.0875742
0.103014
0.445338
0.814876
0.157513
0.0716555
0.0703036
0.0898651
0.23251
0.242785
0.113755
0.0798256
0.0798033
0.215108
0.160623
0.308801
0.354473
0.0817161
0.0869195
0.317175
0.0988524
0.068438
0.0682369
0.103146
0.206053
0.170628
0.17161
0.337504
0.148592
0.080036
0.126654
0.203338
0.130711
0.21561
0.167512
0.539125
0.509637
0.332775
0.235819
0.11772
0.0786289
0.0711578
0.188475
0.166647
0.161301
0.172471
0.381091
0.268469
0.0924825
0.0700893
0.0754209
0.0835897
0.0981174
0.208624
0.232022
0.220134
0.239597
0.202175
0.105052
0.0868279
0.0802686
0.0820474
0.168536
0.069029
0.161578
0.191961
0.19121
0.184142
0.168848
0.144791
0.634283
0.535502
0.0848947
0.0750948
0.11648
0.137775
0.154514
0.185244
0.0941968
0.202249
0.120873
0.0717954
0.179882
0.189383
0.199284
0.213738
0.169877
0.145212
0.129558
0.082727
0.443435
0.0719158
0.0950414
0.156764
0.0889805
0.0807478
0.108318
0.267304
0.0879215
0.0716403
0.0777373
0.0863713
0.18788
0.168808
0.139423
0.144639
0.359247
0.430471
0.271928
0.075183
0.175254
0.1955
0.181575
0.185338
0.193279
0.175512
0.191886
0.252279
0.375278
0.254849
0.104744
0.151745
0.119497
0.211463
0.0793118
0.760485
0.190979
0.141701
0.109512
0.0724744
0.0743562
0.102668
0.142767
0.189677
0.199629
0.16765
0.148632
0.405347
0.197579
0.134312
0.0862261
0.0800707
0.0866997
0.0772124
0.0843265
0.194224
0.183999
0.174522
0.197727
0.17414
0.167119
0.159675
0.130949
0.127667
0.0870335
0.112977
0.137989
0.106448
0.0792709
0.213866
0.073724
0.175716
0.0903411
0.0725478
0.105104
0.164409
0.18895
0.195642
0.280553
0.289336
0.137118
0.0912351
0.079934
0.1219
0.533533
0.647776
0.371381
0.177857
0.0765103
0.0809094
0.198551
0.192496
0.170572
0.204768
0.156804
0.153783
0.125408
0.12235
0.142374
0.192655
0.0815411
0.0777027
0.0907004
0.385256
0.279123
0.122015
0.0908134
0.135853
0.176087
0.200648
0.162445
0.142536
0.131115
0.125011
0.071327
0.179598
0.194611
0.184253
0.14739
0.080333
0.160169
0.100234
0.0724553
0.0786493
0.177367
0.200003
0.167739
0.150026
0.166763
0.149533
0.0984591
0.0785992
0.0921004
0.115676
0.235086
0.0719536
0.100177
0.148639
0.193556
0.118149
0.345761
0.518253
0.1212
0.0843759
0.190347
0.204527
0.133816
0.130406
0.123767
0.201657
0.361362
0.319834
0.260039
0.197057
0.119222
0.592939
0.647081
0.176733
0.0694841
0.071616
0.0847599
0.176328
0.168269
0.154123
0.117575
0.117279
0.133895
0.0903719
0.0995453
0.0724228
0.103593
0.124013
0.181676
0.129931
0.232878
0.0806226
0.0766272
0.0781061
0.0889267
0.163094
0.418215
0.254507
0.0799451
0.0683379
0.15448
0.196658
0.194889
0.18478
0.14385
0.130225
0.162726
0.120943
0.0748028
0.0836396
0.162119
0.116375
0.111593
0.116267
0.140766
0.256905
0.115018
0.124698
0.0685969
0.19793
0.11751
0.184317
0.0768649
0.0759563
0.0965081
0.237944
0.433116
0.069056
0.128559
0.183944
0.174931
0.146337
0.121068
0.117664
0.111749
0.415113
0.0662512
0.0767226
0.0932164
0.151262
0.183502
0.168165
0.125456
0.110423
0.293186
0.0877277
0.0777322
0.166591
0.0875673
0.0756674
0.0676523
0.171909
0.184284
0.114867
0.114208
0.115244
0.138839
0.262217
0.24119
0.189064
0.0900593
0.130336
0.802438
0.231276
0.112733
0.0664757
0.178949
0.118446
0.115433
0.0785578
0.177986
0.0656887
0.0726434
0.0936636
0.128718
0.179677
0.167123
0.124886
0.114358
0.114038
0.154044
0.190382
0.270103
0.133004
0.0752849
0.0774505
0.0870588
0.0803123
0.160673
0.169243
0.162672
0.146883
0.117143
0.113828
0.121432
0.0990451
0.285485
0.0702304
0.105186
0.168015
0.115733
0.11867
0.165532
0.0896828
0.416013
0.104897
0.0664989
0.0663602
0.0738695
0.0909016
0.142771
0.172839
0.164607
0.128657
0.112486
0.150443
0.0797731
0.0780577
0.532834
0.13704
0.0828378
0.152845
0.117167
0.112634
0.120594
0.127977
0.203981
0.234002
0.0764732
0.121112
0.198622
0.540733
0.3694
0.241702
0.0689928
0.127542
0.173432
0.162745
0.1538
0.135419
0.127696
0.108549
0.122204
0.124186
0.130862
0.173632
0.19751
0.135791
0.678475
0.0784622
0.0712659
0.166031
0.117543
0.206746
0.0838255
0.0778806
0.0866693
0.104787
0.0685656
0.0887064
0.153331
0.165747
0.158553
0.13854
0.103933
0.10873
0.126165
0.13601
0.228202
0.210512
0.102522
0.0782284
0.185966
0.0699114
0.0815971
0.108979
0.123825
0.135651
0.108312
0.128987
0.12804
0.122603
0.130017
0.0787202
0.0731251
0.121718
0.116939
0.111639
0.101275
0.115089
0.130769
0.118974
0.207056
0.138584
0.0781291
0.0913482
0.127819
0.103837
0.136895
0.124127
0.128786
0.209852
0.192192
0.199663
0.592234
0.070736
0.182235
0.180268
0.166427
0.0964199
0.0949084
0.103759
0.128621
0.113829
0.145422
0.0897911
0.0820197
0.376929
0.26389
0.0977755
0.0787458
0.0711606
0.0820313
0.126865
0.143183
0.165321
0.179046
0.143311
0.114495
0.107597
0.105334
0.114101
0.133721
0.112846
0.0811794
0.0786924
0.174437
0.094788
0.107731
0.130256
0.133421
0.112111
0.118947
0.113017
0.115452
0.0753484
0.154632
0.11139
0.0944613
0.0951784
0.108408
0.107696
0.141459
0.202265