# vtk DataFile Version 1.0
Unstructured Grid Example
ASCII

DATASET UNSTRUCTURED_GRID
POINTS 659 float
39 162 0
231 104 0
138 170 0
223 216 0
261 454 0
371 513 0
267 265 0
471 229 0
336 25 0
270 194 0
123 25 0
139 57 0
273 1 0
159 96 0
74 92 0
18 124 0
3 139 0
47 165 0
100 185 0
83 185 0
0 360 0
247 400 0
210 513 0
195 221 0
247 193 0
364 254 0
347 363 0
346 398 0
318 513 0
379 320 0
420 303 0
408 302 0
463 267 0
512 163 0
452 198 0
443 201 0
360 195 0
443 112 0
313 19 0
495 151 0
504 159 0
82 1 0
0 14 0
0 101 0
86 101 0
119 89 0
111 28 0
115 1 0
141 43 0
130 33 0
152 44 0
213 49 0
193 94 0
250 94 0
189 83 0
183 93 0
119 109 0
174 112 0
191 109 0
191 177 0
165 118 0
157 178 0
111 128 0
74 154 0
70 183 0
47 150 0
55 139 0
39 131 0
8 152 0
36 154 0
0 173 0
0 185 0
75 191 0
214 184 0
214 196 0
231 202 0
178 194 0
145 194 0
89 206 0
183 202 0
134 208 0
174 225 0
244 234 0
205 226 0
241 224 0
223 207 0
263 340 0
250 318 0
267 431 0
256 513 0
281 513 0
268 422 0
280 321 0
279 298 0
290 256 0
288 247 0
279 285 0
254 297 0
255 221 0
249 214 0
263 215 0
276 230 0
335 256 0
364 245 0
379 247 0
348 308 0
383 294 0
337 288 0
293 307 0
293 395 0
311 340 0
304 441 0
312 448 0
319 412 0
337 513 0
319 400 0
315 359 0
399 292 0
391 288 0
423 314 0
416 322 0
512 394 0
512 458 0
512 287 0
449 279 0
435 262 0
480 261 0
405 258 0
390 248 0
443 243 0
460 231 0
510 242 0
511 231 0
481 205 0
511 190 0
462 179 0
460 210 0
442 211 0
424 214 0
448 224 0
412 216 0
384 204 0
383 220 0
354 219 0
331 171 0
324 177 0
360 177 0
381 194 0
327 161 0
308 137 0
301 148 0
292 157 0
327 1 0
294 3 0
350 85 0
373 133 0
458 60 0
489 61 0
452 122 0
446 162 0
512 27 0
512 64 0
490 17 0
511 1 0
4 1 0
31 1 0
93 1 0
90 18 0
62 1 0
0 52 0
0 29 0
0 77 0
16 113 0
28 120 0
40 122 0
51 124 0
49 114 0
59 111 0
68 108 0
96 99 0
100 111 0
103 121 0
110 111 0
120 125 0
105 103 0
116 100 0
134 75 0
135 86 0
127 96 0
100 76 0
127 47 0
113 55 0
134 65 0
135 7 0
146 18 0
141 27 0
143 73 0
171 1 0
169 30 0
149 1 0
160 1 0
204 1 0
185 1 0
222 1 0
251 1 0
232 76 0
183 13 0
178 78 0
171 58 0
209 104 0
205 95 0
236 93 0
242 82 0
267 117 0
276 123 0
260 110 0
206 120 0
153 118 0
181 120 0
200 113 0
151 84 0
148 98 0
140 94 0
140 103 0
149 109 0
102 130 0
99 153 0
117 155 0
126 149 0
175 137 0
143 134 0
214 128 0
262 132 0
225 131 0
272 132 0
281 138 0
264 149 0
272 154 0
253 146 0
238 139 0
250 175 0
231 173 0
280 159 0
281 170 0
245 184 0
282 179 0
224 184 0
207 178 0
179 178 0
144 177 0
165 174 0
163 162 0
109 181 0
104 171 0
134 181 0
125 181 0
87 175 0
77 174 0
60 176 0
59 167 0
68 172 0
78 164 0
98 164 0
83 157 0
85 146 0
96 144 0
86 125 0
79 132 0
63 143 0
60 155 0
68 162 0
46 140 0
27 141 0
36 140 0
29 130 0
0 129 0
9 125 0
14 138 0
20 152 0
2 161 0
14 160 0
21 167 0
27 159 0
40 176 0
51 177 0
33 170 0
31 183 0
57 189 0
91 194 0
71 199 0
129 199 0
120 201 0
103 196 0
115 189 0
167 186 0
157 189 0
191 188 0
201 189 0
204 199 0
235 193 0
169 196 0
132 190 0
192 201 0
174 204 0
201 207 0
211 210 0
237 211 0
193 210 0
184 211 0
165 210 0
122 213 0
150 207 0
142 203 0
159 202 0
42 202 0
110 203 0
77 210 0
0 212 0
109 214 0
136 217 0
147 217 0
142 226 0
0 307 0
0 253 0
0 231 0
0 472 0
0 421 0
0 492 0
0 506 0
49 513 0
22 513 0
8 513 0
96 513 0
228 332 0
223 366 0
179 513 0
152 513 0
233 372 0
237 397 0
234 358 0
229 342 0
234 235 0
226 229 0
188 227 0
160 225 0
174 214 0
157 215 0
203 216 0
232 221 0
242 347 0
253 354 0
255 363 0
255 384 0
249 391 0
249 376 0
241 380 0
248 409 0
244 421 0
246 444 0
238 513 0
253 436 0
250 428 0
253 418 0
256 396 0
258 425 0
267 412 0
263 443 0
271 456 0
285 446 0
276 443 0
280 434 0
279 404 0
285 392 0
273 394 0
264 393 0
263 402 0
264 377 0
263 355 0
271 385 0
276 355 0
276 337 0
286 333 0
276 307 0
269 300 0
265 288 0
272 329 0
263 331 0
258 314 0
253 335 0
245 326 0
239 334 0
242 297 0
244 310 0
249 288 0
262 305 0
268 223 0
268 213 0
258 278 0
255 236 0
249 203 0
240 202 0
255 186 0
261 206 0
277 248 0
271 211 0
275 259 0
269 274 0
284 265 0
279 274 0
277 220 0
283 209 0
295 263 0
291 271 0
299 281 0
311 258 0
306 273 0
302 253 0
311 249 0
334 247 0
323 263 0
335 265 0
342 251 0
343 267 0
328 270 0
318 272 0
314 281 0
324 293 0
333 296 0
339 305 0
344 283 0
339 338 0
338 318 0
333 325 0
331 334 0
322 332 0
322 316 0
314 304 0
306 298 0
292 295 0
306 311 0
302 320 0
291 323 0
291 377 0
294 361 0
302 355 0
297 406 0
301 419 0
295 386 0
288 408 0
290 431 0
292 419 0
293 440 0
290 457 0
304 455 0
298 513 0
297 448 0
300 429 0
306 406 0
306 397 0
309 415 0
315 425 0
336 429 0
328 440 0
330 415 0
327 406 0
334 378 0
336 369 0
325 381 0
321 371 0
305 364 0
316 350 0
328 342 0
337 350 0
349 295 0
350 322 0
362 295 0
390 329 0
382 339 0
373 343 0
345 330 0
345 354 0
357 357 0
357 381 0
347 383 0
364 374 0
374 365 0
369 356 0
385 354 0
395 345 0
422 513 0
484 513 0
463 513 0
503 513 0
512 489 0
512 423 0
512 357 0
512 314 0
430 306 0
406 324 0
404 337 0
424 287 0
410 292 0
433 297 0
444 294 0
460 280 0
474 269 0
448 267 0
434 276 0
418 265 0
410 281 0
440 283 0
370 274 0
385 278 0
362 285 0
354 278 0
381 266 0
355 269 0
390 270 0
406 268 0
395 257 0
372 261 0
357 259 0
348 260 0
354 247 0
381 256 0
413 254 0
422 247 0
446 252 0
435 247 0
424 258 0
456 259 0
469 256 0
512 263 0
480 251 0
461 251 0
478 239 0
469 244 0
457 240 0
433 220 0
480 230 0
489 223 0
510 219 0
490 213 0
471 207 0
512 203 0
495 202 0
432 211 0
451 211 0
468 216 0
457 218 0
401 205 0
420 204 0
430 198 0
416 195 0
372 204 0
390 196 0
394 211 0
371 221 0
388 228 0
378 228 0
421 232 0
421 222 0
430 234 0
416 241 0
409 246 0
382 238 0
369 238 0
360 237 0
360 228 0
345 233 0
339 227 0
352 239 0
344 241 0
327 240 0
335 237 0
320 245 0
292 235 0
301 231 0
286 227 0
312 231 0
331 224 0
311 219 0
301 214 0
296 222 0
288 217 0
302 201 0
295 207 0
313 203 0
319 209 0
322 201 0
333 200 0
328 216 0
320 221 0
345 221 0
339 215 0
344 207 0
353 205 0
413 184 0
383 180 0
366 167 0
352 185 0
351 175 0
366 188 0
346 193 0
330 187 0
316 189 0
302 189 0
289 191 0
293 183 0
300 176 0
321 168 0
341 177 0
325 58 0
321 154 0
291 139 0
290 167 0
316 1 0
301 16 0
339 51 0
344 35 0
354 1 0
371 1 0
352 58 0
370 152 0
397 122 0
372 113 0
392 110 0
406 1 0
423 1 0
441 1 0
457 1 0
425 111 0
433 33 0
418 30 0
415 125 0
414 172 0
418 162 0
428 187 0
438 193 0
448 186 0
439 152 0
440 141 0
448 133 0
460 163 0
488 137 0
471 170 0
465 195 0
508 150 0
503 184 0
497 142 0
508 136 0
512 124 0
512 89 0
512 108 0
459 47 0
497 1 0
480 1 0
512 12 0
512 40 0

CELLS 1239 4956
3 189 179 44
3 342 83 3
3 285 286 281
3 251 59 248
3 288 19 18
3 210 1 209
3 398 6 82
3 539 7 548
3 356 375 362
3 614 214 149
3 104 25 103
3 620 619 8
3 188 185 45
3 552 637 638
3 306 3 85
3 47 10 46
3 208 50 198
3 49 48 190
3 65 17 0
3 204 12 212
3 48 50 11
3 55 57 13
3 177 176 14
3 45 191 186
3 276 172 15
3 178 267 177
3 279 16 68
3 273 67 271
3 269 268 63
3 293 291 315
3 181 266 180
3 219 218 58
3 269 66 268
3 341 342 348
3 279 68 280
3 356 357 338
3 321 318 310
3 334 20 321
3 313 309 346
3 249 2 251
3 306 84 348
3 247 73 297
3 31 119 120
3 108 92 382
3 498 120 499
3 407 408 405
3 454 90 452
3 355 352 353
3 369 366 88
3 475 29 105
3 468 116 466
3 501 500 30
3 494 489 485
3 117 31 106
3 30 119 31
3 496 503 504
3 527 506 125
3 157 37 156
3 133 543 646
3 614 149 150
3 549 130 139
3 101 409 578
3 603 36 596
3 521 25 520
3 631 156 37
3 551 552 546
3 153 616 617
3 618 622 612
3 649 39 644
3 158 37 157
3 134 648 33
3 648 545 133
3 168 14 169
3 165 168 169
3 171 14 176
3 180 44 179
3 190 46 49
3 191 45 189
3 13 57 60
3 166 47 167
3 190 48 11
3 194 200 198
3 195 193 194
3 54 51 205
3 10 49 46
3 10 47 193
3 195 194 198
3 219 216 218
3 195 10 193
3 212 617 612
3 220 207 13
3 54 205 210
3 613 155 623
3 417 414 416
3 55 54 52
3 54 208 51
3 58 55 52
3 13 207 55
3 255 253 227
3 182 184 185
3 58 57 55
3 223 224 230
3 210 58 52
3 234 213 214
3 297 59 247
3 229 60 218
3 58 218 57
3 227 226 265
3 294 61 250
3 2 228 230
3 183 62 182
3 262 253 256
3 226 263 264
3 260 64 258
3 287 283 284
3 270 259 269
3 69 272 273
3 67 174 175
3 0 69 65
3 266 267 178
3 271 67 175
3 15 172 173
3 277 272 278
3 284 17 259
3 282 278 69
3 274 15 173
3 275 16 279
3 70 280 281
3 289 314 287
3 64 19 72
3 246 74 73
3 296 297 302
3 246 75 74
3 305 3 83
3 400 306 75
3 85 74 75
3 296 76 248
3 248 59 296
3 315 78 292
3 290 291 293
3 314 286 283
3 72 19 288
3 308 79 302
3 303 300 76
3 295 300 313
3 292 288 18
3 83 343 23
3 321 20 322
3 98 82 84
3 304 347 307
3 392 87 389
3 383 384 93
3 399 402 99
3 82 341 84
3 306 85 75
3 347 83 23
3 91 448 450
3 333 334 321
3 340 334 333
3 391 343 83
3 370 368 369
3 357 358 335
3 4 367 89
3 455 368 451
3 450 446 456
3 364 360 361
3 439 440 108
3 385 386 387
3 412 413 96
3 394 387 97
3 416 94 95
3 474 105 29
3 600 603 611
3 521 523 25
3 415 424 425
3 387 92 385
3 393 384 97
3 384 96 93
3 100 98 99
3 395 398 98
3 402 396 100
3 98 84 99
3 404 409 396
3 395 98 100
3 583 584 582
3 403 6 398
3 424 419 423
3 107 429 473
3 546 137 538
3 517 118 512
3 557 554 142
3 506 32 504
3 475 106 29
3 474 29 478
3 519 128 564
3 31 29 106
3 408 407 412
3 524 520 104
3 96 413 438
3 435 427 428
3 380 381 379
3 467 27 464
3 435 431 432
3 458 115 457
3 460 111 456
3 367 90 89
3 461 462 460
3 114 28 453
3 459 113 460
3 113 463 460
3 462 114 112
3 372 442 447
3 464 463 113
3 470 116 444
3 467 115 458
3 118 117 106
3 136 547 34
3 511 512 106
3 508 125 507
3 120 119 495
3 505 32 531
3 488 477 476
3 480 26 466
3 27 482 484
3 461 27 489
3 30 500 502
3 509 501 117
3 510 502 500
3 564 525 127
3 505 126 123
3 32 530 531
3 519 515 524
3 547 35 34
3 520 511 516
3 568 566 567
3 537 527 129
3 526 529 525
3 534 530 527
3 547 137 35
3 126 533 532
3 544 541 545
3 131 132 532
3 131 533 535
3 645 648 133
3 646 34 639
3 544 134 33
3 542 540 548
3 648 134 545
3 638 35 552
3 548 136 543
3 548 130 549
3 538 562 561
3 147 555 141
3 139 538 137
3 602 36 600
3 537 139 130
3 538 138 546
3 558 140 563
3 566 559 565
3 556 140 558
3 565 128 104
3 555 556 141
3 566 565 104
3 576 416 95
3 554 141 142
3 610 144 145
[...]
CELL_DATA 1239
COLOR_SCALARS ColorSpace 1
0.539869
0.546405
0.547712
0.552941
0.547712
0.415686
0.539869
0.568627
0.586928
0.511111
0.533333
0.394771
0.584314
0.550327
0.54902
0.456209
0.48366
0.529412
0.550327
0.305882
0.563399
0.466667
0.551634
0.465359
0.54902
0.550327
0.54902
0.550327
0.550327
0.547712
0.550327
0.619608
0.551634
0.543791
0.54902
0.498039
0.546405
0.521569
0.54902
0.552941
0.546405
0.551634
0.52549
0.562092
0.504575
0.513725
0.496732
0.478431
0.47451
0.597386
0.452288
0.640523
0.498039
0.471895
0.583007
0.534641
0.454902
0.50719
0.572549
0.44183
0.458824
0.547712
0.580392
0.533333
0.543791
0.550327
0.29281
0.435294
0.547712
0.512418
0.537255
0.518954
0.375163
0.267974
0.481046
0.551634
0.52549
0.499346
0.494118
0.342484
0.551634
0.364706
0.563399
0.339869
0.495425
0.453595
0.50719
0.596078
0.533333
0.473203
0.513725
0.332026
0.503268
0.532026
0.449673
0.414379
0.54902
0.504575
0.551634
0.551634
0.532026
0.571242
0.509804
0.51634
0.551634
0.562092
0.562092
0.551634
0.551634
0.550327
0.550327
0.551634
0.550327
0.54902
0.543791
0.551634
0.54902
0.54902
0.550327
0.550327
0.550327
0.54902
0.547712
0.547712
0.54902
0.54902
0.547712
0.547712
0.545098
0.547712
0.551634
0.54902
0.552941
0.547712
0.551634
0.551634
0.551634
0.550327
0.546405
0.54902
0.546405
0.546405
0.547712
0.551634
0.551634
0.547712
0.547712
0.515033
0.545098
0.54902
0.486275
0.529412
0.54902
0.543791
0.550327
0.547712
0.48366
0.542484
0.550327
0.538562
0.403922
0.479739
0.500654
0.454902
0.475817
0.614379
0.538562
0.488889
0.573856
0.499346
0.546405
0.603922
0.482353
0.52549
0.543791
0.491503
0.526797
0.556863
0.547712
0.545098
0.54902
0.546405
0.550327
0.547712
0.551634
0.541176
0.556863
0.505882
0.55817
0.484967
0.55817
0.461438
0.501961
0.554248
0.542484
0.490196
0.529412
0.550327
0.563399
0.426144
0.473203
0.585621
0.445752
0.614379
0.453595
0.49281
0.530719
0.494118
0.545098
0.545098
0.495425
0.490196
0.560784
0.60915
0.626144
0.415686
0.551634
0.473203
0.547712
0.51634
0.465359
0.427451
0.488889
0.56732
0.530719
0.576471
0.501961
0.511111
0.520261
0.543791
0.462745
0.532026
0.551634
0.528105
0.554248
0.478431
0.571242
0.48366
0.552941
0.573856
0.495425
0.541176
0.573856
0.568627
0.54902
0.537255
0.481046
0.494118
0.54902
0.56732
0.496732
0.550327
0.556863
0.537255
0.512418
0.396078
0.55817
0.55817
0.530719
0.538562
0.532026
0.552941
0.534641
0.494118
0.54902
0.513725
0.448366
0.564706
0.453595
0.495425
0.569935
0.554248
0.551634
0.518954
0.511111
0.518954
0.54902
0.420915
0.473203
0.440523
0.564706
0.372549
0.279739
0.364706
0.539869
0.423529
0.498039
0.546405
0.542484
0.546405
0.385621
0.363399
0.550327
0.555556
0.54902
0.550327
0.433987
0.54902
0.347712
0.322876
0.25098
0.414379
0.44183
0.328105
0.457516
0.329412
0.273203
0.266667
0.396078
0.547712
0.458824
0.54902
0.479739
0.54902
0.551634
0.551634
0.550327
0.550327
0.550327
0.550327
0.550327
0.551634
0.550327
0.54902
0.541176
0.551634
0.550327
0.550327
0.551634
0.551634
0.550327
0.550327
0.551634
0.564706
0.550327
0.566013
0.560784
0.475817
0.496732
0.457516
0.575163
0.494118
0.569935
0.552941
0.495425
0.491503
0.501961
0.537255
0.440523
0.512418
0.447059
0.384314
0.469281
0.581699
0.453595
0.539869
0.499346
0.528105
0.487582
0.4
0.518954
0.303268
0.317647
0.32549
0.227451
0.359477
0.231373
0.443137
0.249673
0.371242
0.415686
0.249673
0.470588
0.491503
0.416993
0.509804
0.433987
0.475817
0.410458
0.270588
0.363399
0.39085
0.419608
0.334641
0.563399
0.622222
0.537255
0.543791
0.522876
0.530719
0.481046
0.554248
0.581699
0.555556
0.521569
0.575163
0.550327
0.517647
0.460131
0.484967
0.508497
0.554248
0.559477
0.52549
0.568627
0.571242
0.517647
0.496732
0.550327
0.550327
0.551634
0.54902
0.550327
0.550327
0.550327
0.554248
0.552941
0.579085
0.550327
0.552941
0.563399
0.500654
0.471895
0.577778
0.562092
0.470588
0.551634
0.419608
0.541176
0.584314
0.593464
0.550327
0.560784
0.583007
0.573856
0.571242
0.56732
0.573856
0.575163
0.552941
0.576471
0.551634
0.572549
0.596078
0.560784
0.585621
0.555556
0.552941
0.554248
0.576471
0.554248
0.554248
0.554248
0.555556
0.551634
0.552941
0.551634
0.550327
0.552941
0.552941
0.552941
0.554248
0.550327
0.550327
0.551634
0.550327
0.54902
0.54902
0.551634
0.54902
0.550327
0.551634
0.550327
0.550327
0.547712
0.545098
0.550327
0.551634
0.54902
0.550327
0.550327
0.551634
0.551634
0.550327
0.550327
0.54902
0.552941
0.551634
0.552941
0.551634
0.550327
0.551634
0.551634
0.551634
0.550327
0.552941
0.550327
0.551634
0.551634
0.551634
0.552941
0.550327
0.54902
0.547712
0.551634
0.54902
0.54902
0.547712
0.529412
0.547712
0.528105
0.547712
0.547712
0.54902
0.547712
0.54902
0.546405
0.54902
0.547712
0.547712
0.543791
0.54902
0.54902
0.546405
0.546405
0.545098
0.547712
0.54902
0.547712
0.546405
0.543791
0.543791
0.54902
0.545098
0.543791
0.533333
0.54902
0.546405
0.54902
0.54902
0.54902
0.547712
0.54902
0.54902
0.552941
0.552941
0.552941
0.550327
0.54902
0.54902
0.550327
0.54902
0.550327
0.547712
0.555556
0.551634
0.54902
0.550327
0.54902
0.54902
0.54902
0.54902
0.547712
0.54902
0.550327
0.54902
0.54902
0.54902
0.550327
0.547712
0.54902
0.54902
0.54902
0.54902
0.54902
0.550327
0.550327
0.546405
0.550327
0.54902
0.547712
0.547712
0.547712
0.550327
0.542484
0.545098
0.547712
0.546405
0.546405
0.545098
0.538562
0.54902
0.532026
0.550327
0.535948
0.547712
0.547712
0.54902
0.550327
0.52549
0.539869
0.538562
0.534641
0.499346
0.471895
0.464052
0.464052
0.458824
0.461438
0.471895
0.533333
0.491503
0.512418
0.461438
0.517647
0.490196
0.521569
0.615686
0.487582
0.491503
0.515033
0.611765
0.620915
0.448366
0.550327
0.500654
0.560784
0.546405
0.543791
0.550327
0.547712
0.54902
0.550327
0.547712
0.547712
0.547712
0.54902
0.54902
0.547712
0.547712
0.543791
0.482353
0.539869
0.45098
0.593464
0.606536
0.610458
0.500654
0.498039
0.45098
0.486275
0.513725
0.564706
0.439216
0.466667
0.501961
0.586928
0.568627
0.494118
0.518954
0.504575
0.495425
0.488889
0.581699
0.462745
0.535948
0.596078
0.479739
0.63268
0.541176
0.34902
0.560784
0.551634
0.547712
0.445752
0.504575
0.569935
0.457516
0.509804
0.466667
0.512418
0.498039
0.419608
0.440523
0.498039
0.512418
0.478431
0.443137
0.452288
0.473203
0.473203
0.435294
0.482353
0.499346
0.467974
0.614379
0.40915
0.656209
0.603922
0.528105
0.334641
0.552941
0.513725
0.449673
0.418301
0.627451
0.44183
0.551634
0.542484
0.50719
0.543791
0.541176
0.471895
0.521569
0.59085
0.495425
0.484967
0.511111
0.512418
0.520261
0.486275
0.479739
0.470588
0.443137
0.362092
0.456209
0.542484
0.456209
0.454902
0.503268
0.50719
0.511111
0.524183
0.54902
0.545098
0.54902
0.55817
0.528105
0.545098
0.543791
0.545098
0.54902
0.551634
0.552941
0.552941
0.551634
0.551634
0.550327
0.551634
0.50719
0.55817
0.54902
0.550327
0.534641
0.589542
0.490196
0.481046
0.576471
0.616993
0.515033
0.478431
0.547712
0.551634
0.538562
0.550327
0.529412
0.619608
0.533333
0.515033
0.586928
0.576471
0.580392
0.559477
0.522876
0.482353
0.522876
0.554248
0.562092
0.571242
0.563399
0.538562
0.547712
0.547712
0.583007
0.552941
0.478431
0.576471
0.566013
0.541176
0.564706
0.594771
0.564706
0.501961
0.619608
0.550327
0.518954
0.554248
0.471895
0.416993
0.460131
0.554248
0.530719
0.521569
0.433987
0.528105
0.500654
0.534641
0.551634
0.51634
0.538562
0.522876
0.589542
0.635294
0.436601
0.602614
0.541176
0.499346
0.538562
0.498039
0.500654
0.547712
0.460131
0.522876
0.466667
0.626144
0.615686
0.611765
0.396078
0.461438
0.471895
0.528105
0.611765
0.671895
0.521569
0.649673
0.616993
0.596078
0.552941
0.481046
0.392157
0.596078
0.401307
0.508497
0.435294
0.499346
0.509804
0.478431
0.419608
0.49281
0.484967
0.526797
0.511111
0.380392
0.586928
0.513725
0.338562
0.597386
0.563399
0.575163
0.534641
0.614379
0.542484
0.584314
0.586928
0.526797
0.462745
0.528105
0.498039
0.581699
0.568627
0.627451
0.581699
0.56732
0.47451
0.543791
0.529412
0.56732
0.639216
0.511111
0.60915
0.562092
0.560784
0.547712
0.486275
0.579085
0.484967
0.45098
0.47451
0.55817
0.522876
0.467974
0.503268
0.577778
0.518954
0.430065
0.517647
0.466667
0.469281
0.471895
0.50719
0.554248
0.546405
0.499346
0.444444
0.481046
0.512418
0.522876
0.467974
0.509804
0.499346
0.460131
0.586928
0.478431
0.490196
0.444444
0.45098
0.452288
0.495425
0.486275
0.505882
0.513725
0.482353
0.481046
0.48366
0.477124
0.500654
0.51634
0.55817
0.545098
0.562092
0.605229
0.473203
0.513725
0.520261
0.512418
0.51634
0.647059
0.575163
0.49281
0.543791
0.605229
0.436601
0.533333
0.52549
0.436601
0.530719
0.456209
0.464052
0.452288
0.515033
0.521569
0.594771
0.560784
0.394771
0.501961
0.445752
0.430065
0.511111
0.556863
0.40915
0.439216
0.477124
0.541176
0.559477
0.522876
0.526797
0.505882
0.556863
0.556863
0.528105
0.521569
0.550327
0.449673
0.518954
0.524183
0.530719
0.503268
0.566013
0.543791
0.521569
0.513725
0.55817
0.521569
0.546405
0.547712
0.596078
0.539869
0.521569
0.512418
0.426144
0.504575
0.546405
0.541176
0.577778
0.547712
0.568627
0.465359
0.524183
0.550327
0.542484
0.568627
0.577778
0.52549
0.52549
0.562092
0.56732
0.461438
0.454902
0.499346
0.410458
0.572549
0.569935
0.539869
0.552941
0.535948
0.577778
0.423529
0.537255
0.447059
0.464052
0.513725
0.547712
0.538562
0.542484
0.571242
0.494118
0.543791
0.550327
0.551634
0.532026
0.59085
0.478431
0.530719
0.566013
0.551634
0.542484
0.551634
0.551634
0.54902
0.551634
0.554248
0.551634
0.575163
0.593464
0.552941
0.54902
0.528105
0.537255
0.579085
0.528105
0.52549
0.508497
0.539869
0.550327
0.547712
0.541176
0.475817
0.52549
0.593464
0.494118
0.560784
0.526797
0.569935
0.530719
0.534641
0.530719
0.533333
0.55817
0.568627
0.539869
0.577778
0.575163
0.588235
0.55817
0.546405
0.593464
0.543791
0.521569
0.52549
0.579085
0.428758
0.50719
0.545098
0.576471
0.539869
0.541176
0.534641
0.504575
0.546405
0.550327
0.546405
0.545098
0.551634
0.552941
0.584314
0.393464
0.563399
0.556863
0.554248
0.550327
0.550327
0.551634
0.550327
0.550327
0.554248
0.555556
0.550327
0.551634
0.55817
0.555556
0.605229
0.610458
0.539869
0.580392
0.594771
0.594771
0.435294
0.577778
0.405229
0.562092
0.383007
0.580392
0.542484
0.566013
0.54902
0.568627
0.601307
0.584314
0.550327
0.54902
0.550327
0.555556
0.511111
0.550327
0.522876
0.491503
0.452288
0.500654
0.556863
0.56732
0.51634
0.50719
0.51634
0.526797
0.572549
0.555556
0.555556
0.611765
0.555556
0.556863
0.571242
0.593464
0.562092
0.491503
0.517647
0.470588
0.448366
0.554248
0.545098
0.499346
0.426144
0.48366
0.457516
0.535948
0.573856
0.592157
0.362092
0.335948
0.233987
0.372549
0.545098
0.360784
0.279739
0.309804
0.505882
0.537255
0.460131
0.511111
0.539869
0.535948
0.52549
0.520261
0.528105
0.551634
0.462745
0.322876
0.287582
0.326797
0.436601
0.552941
0.456209
0.419608
0.343791
0.372549
0.321569
0.54902
0.551634
0.551634
0.551634
0.54902
0.550327
0.551634
0.550327
0.551634
0.54902
0.551634
0.551634
0.552941
0.54902
0.54902
0.550327
0.54902
0.551634
0.547712
0.551634
0.430065
0.54902
0.551634
0.54902
0.54902
0.550327
0.520261
0.545098
0.538562
0.413072
0.550327
0.547712
0.513725
0.517647
0.342484
0.461438
0.491503
0.347712
0.422222
0.275817
0.372549
0.354248
0.341176
0.315033
