# vtk DataFile Version 1.0
Unstructured Grid Example
ASCII

DATASET UNSTRUCTURED_GRID
POINTS 659 float
8 513 0
22 513 0
49 513 0
96 513 0
152 513 0
179 513 0
210 513 0
238 513 0
256 513 0
281 513 0
298 513 0
318 513 0
337 513 0
371 513 0
422 513 0
463 513 0
484 513 0
503 513 0
0 506 0
0 492 0
512 489 0
0 472 0
512 458 0
290 457 0
271 456 0
304 455 0
261 454 0
297 448 0
312 448 0
285 446 0
246 444 0
263 443 0
276 443 0
304 441 0
293 440 0
328 440 0
253 436 0
280 434 0
267 431 0
290 431 0
300 429 0
336 429 0
250 428 0
258 425 0
315 425 0
512 423 0
268 422 0
0 421 0
244 421 0
292 419 0
301 419 0
253 418 0
309 415 0
330 415 0
267 412 0
319 412 0
248 409 0
288 408 0
297 406 0
306 406 0
327 406 0
279 404 0
263 402 0
247 400 0
319 400 0
346 398 0
237 397 0
306 397 0
256 396 0
293 395 0
273 394 0
512 394 0
264 393 0
285 392 0
249 391 0
295 386 0
271 385 0
255 384 0
347 383 0
325 381 0
357 381 0
241 380 0
334 378 0
264 377 0
291 377 0
249 376 0
364 374 0
233 372 0
321 371 0
336 369 0
223 366 0
374 365 0
305 364 0
255 363 0
347 363 0
294 361 0
0 360 0
315 359 0
234 358 0
357 357 0
512 357 0
369 356 0
263 355 0
276 355 0
302 355 0
253 354 0
345 354 0
385 354 0
316 350 0
337 350 0
242 347 0
395 345 0
373 343 0
229 342 0
328 342 0
263 340 0
311 340 0
382 339 0
339 338 0
276 337 0
404 337 0
253 335 0
239 334 0
331 334 0
286 333 0
228 332 0
322 332 0
263 331 0
345 330 0
272 329 0
390 329 0
245 326 0
333 325 0
406 324 0
291 323 0
350 322 0
416 322 0
280 321 0
302 320 0
379 320 0
250 318 0
338 318 0
322 316 0
258 314 0
423 314 0
512 314 0
306 311 0
244 310 0
348 308 0
0 307 0
276 307 0
293 307 0
430 306 0
262 305 0
339 305 0
314 304 0
420 303 0
408 302 0
269 300 0
279 298 0
306 298 0
242 297 0
254 297 0
433 297 0
333 296 0
292 295 0
349 295 0
362 295 0
383 294 0
444 294 0
324 293 0
399 292 0
410 292 0
249 288 0
265 288 0
337 288 0
391 288 0
424 287 0
512 287 0
279 285 0
362 285 0
344 283 0
440 283 0
299 281 0
314 281 0
410 281 0
460 280 0
449 279 0
258 278 0
354 278 0
385 278 0
434 276 0
269 274 0
279 274 0
370 274 0
306 273 0
318 272 0
291 271 0
328 270 0
390 270 0
355 269 0
474 269 0
406 268 0
343 267 0
448 267 0
463 267 0
381 266 0
267 265 0
284 265 0
335 265 0
418 265 0
295 263 0
323 263 0
512 263 0
435 262 0
372 261 0
480 261 0
348 260 0
275 259 0
357 259 0
456 259 0
311 258 0
405 258 0
424 258 0
395 257 0
290 256 0
335 256 0
381 256 0
469 256 0
364 254 0
413 254 0
0 253 0
302 253 0
446 252 0
342 251 0
461 251 0
480 251 0
311 249 0
277 248 0
390 248 0
288 247 0
334 247 0
354 247 0
379 247 0
422 247 0
435 247 0
409 246 0
320 245 0
364 245 0
469 244 0
443 243 0
510 242 0
344 241 0
416 241 0
327 240 0
457 240 0
352 239 0
478 239 0
369 238 0
382 238 0
335 237 0
360 237 0
255 236 0
234 235 0
292 235 0
244 234 0
430 234 0
345 233 0
421 232 0
0 231 0
301 231 0
312 231 0
460 231 0
511 231 0
276 230 0
480 230 0
226 229 0
471 229 0
360 228 0
378 228 0
388 228 0
188 227 0
286 227 0
339 227 0
142 226 0
205 226 0
160 225 0
174 225 0
241 224 0
331 224 0
448 224 0
268 223 0
489 223 0
296 222 0
421 222 0
195 221 0
232 221 0
255 221 0
320 221 0
345 221 0
371 221 0
277 220 0
383 220 0
433 220 0
311 219 0
354 219 0
510 219 0
457 218 0
136 217 0
147 217 0
288 217 0
203 216 0
223 216 0
328 216 0
412 216 0
468 216 0
157 215 0
263 215 0
339 215 0
109 214 0
174 214 0
249 214 0
301 214 0
424 214 0
122 213 0
268 213 0
490 213 0
0 212 0
184 211 0
237 211 0
271 211 0
394 211 0
432 211 0
442 211 0
451 211 0
77 210 0
165 210 0
193 210 0
211 210 0
460 210 0
283 209 0
319 209 0
134 208 0
150 207 0
201 207 0
223 207 0
295 207 0
344 207 0
471 207 0
89 206 0
261 206 0
353 205 0
401 205 0
481 205 0
174 204 0
372 204 0
384 204 0
420 204 0
110 203 0
142 203 0
249 203 0
313 203 0
512 203 0
42 202 0
159 202 0
183 202 0
231 202 0
240 202 0
495 202 0
120 201 0
192 201 0
302 201 0
322 201 0
443 201 0
333 200 0
71 199 0
129 199 0
204 199 0
430 198 0
452 198 0
103 196 0
169 196 0
214 196 0
390 196 0
360 195 0
416 195 0
465 195 0
91 194 0
145 194 0
178 194 0
270 194 0
381 194 0
235 193 0
247 193 0
346 193 0
438 193 0
75 191 0
289 191 0
132 190 0
511 190 0
57 189 0
115 189 0
157 189 0
201 189 0
302 189 0
316 189 0
191 188 0
366 188 0
330 187 0
428 187 0
167 186 0
255 186 0
448 186 0
0 185 0
83 185 0
100 185 0
352 185 0
214 184 0
224 184 0
245 184 0
413 184 0
503 184 0
31 183 0
70 183 0
293 183 0
109 181 0
125 181 0
134 181 0
383 180 0
282 179 0
462 179 0
157 178 0
179 178 0
207 178 0
51 177 0
144 177 0
191 177 0
324 177 0
341 177 0
360 177 0
40 176 0
60 176 0
300 176 0
87 175 0
250 175 0
351 175 0
77 174 0
165 174 0
0 173 0
231 173 0
68 172 0
414 172 0
104 171 0
331 171 0
33 170 0
138 170 0
281 170 0
471 170 0
321 168 0
21 167 0
59 167 0
290 167 0
366 167 0
47 165 0
78 164 0
98 164 0
460 163 0
512 163 0
39 162 0
68 162 0
163 162 0
418 162 0
446 162 0
2 161 0
327 161 0
14 160 0
27 159 0
280 159 0
504 159 0
83 157 0
292 157 0
60 155 0
117 155 0
36 154 0
74 154 0
272 154 0
321 154 0
99 153 0
8 152 0
20 152 0
370 152 0
439 152 0
495 151 0
47 150 0
508 150 0
126 149 0
264 149 0
301 148 0
85 146 0
253 146 0
96 144 0
63 143 0
497 142 0
27 141 0
440 141 0
36 140 0
46 140 0
3 139 0
55 139 0
238 139 0
291 139 0
14 138 0
281 138 0
175 137 0
308 137 0
488 137 0
508 136 0
143 134 0
373 133 0
448 133 0
79 132 0
262 132 0
272 132 0
39 131 0
225 131 0
29 130 0
102 130 0
0 129 0
111 128 0
214 128 0
9 125 0
86 125 0
120 125 0
415 125 0
18 124 0
51 124 0
512 124 0
276 123 0
40 122 0
397 122 0
452 122 0
103 121 0
28 120 0
181 120 0
206 120 0
153 118 0
165 118 0
267 117 0
49 114 0
16 113 0
200 113 0
372 113 0
174 112 0
443 112 0
59 111 0
100 111 0
110 111 0
425 111 0
260 110 0
392 110 0
119 109 0
149 109 0
191 109 0
68 108 0
512 108 0
209 104 0
231 104 0
105 103 0
140 103 0
0 101 0
86 101 0
116 100 0
96 99 0
148 98 0
127 96 0
159 96 0
205 95 0
140 94 0
193 94 0
250 94 0
183 93 0
236 93 0
74 92 0
119 89 0
512 89 0
135 86 0
350 85 0
151 84 0
189 83 0
242 82 0
178 78 0
0 77 0
100 76 0
232 76 0
134 75 0
143 73 0
134 65 0
512 64 0
489 61 0
458 60 0
171 58 0
325 58 0
352 58 0
139 57 0
113 55 0
0 52 0
339 51 0
213 49 0
127 47 0
459 47 0
152 44 0
141 43 0
512 40 0
344 35 0
130 33 0
433 33 0
169 30 0
418 30 0
0 29 0
111 28 0
141 27 0
512 27 0
123 25 0
336 25 0
313 19 0
90 18 0
146 18 0
490 17 0
301 16 0
0 14 0
183 13 0
512 12 0
135 7 0
294 3 0
4 1 0
31 1 0
62 1 0
82 1 0
93 1 0
115 1 0
149 1 0
160 1 0
171 1 0
185 1 0
204 1 0
222 1 0
251 1 0
273 1 0
316 1 0
327 1 0
354 1 0
371 1 0
406 1 0
423 1 0
441 1 0
457 1 0
480 1 0
497 1 0
511 1 0
CELLS 659 1318
1 0
1 1
1 2
1 3
1 4
1 5
1 6
1 7
1 8
1 9
1 10
1 11
1 12
1 13
1 14
1 15
1 16
1 17
1 18
1 19
1 20
1 21
1 22
1 23
1 24
1 25
1 26
1 27
1 28
1 29
1 30
1 31
1 32
1 33
1 34
1 35
1 36
1 37
1 38
1 39
1 40
1 41
1 42
1 43
1 44
1 45
1 46
1 47
1 48
1 49
1 50
1 51
1 52
1 53
1 54
1 55
1 56
1 57
1 58
1 59
1 60
1 61
1 62
1 63
1 64
1 65
1 66
1 67
1 68
1 69
1 70
1 71
1 72
1 73
1 74
1 75
1 76
1 77
1 78
1 79
1 80
1 81
1 82
1 83
1 84
1 85
1 86
1 87
1 88
1 89
1 90
1 91
1 92
1 93
1 94
1 95
1 96
1 97
1 98
1 99
1 100
1 101
1 102
1 103
1 104
1 105
1 106
1 107
1 108
1 109
1 110
1 111
1 112
1 113
1 114
1 115
1 116
1 117
1 118
1 119
1 120
1 121
1 122
1 123
1 124
1 125
1 126
1 127
1 128
1 129
1 130
1 131
1 132
1 133
1 134
1 135
1 136
1 137
1 138
1 139
1 140
1 141
1 142
1 143
1 144
1 145
1 146
1 147
1 148
1 149
1 150
1 151
1 152
1 153
1 154
1 155
1 156
1 157
1 158
1 159
1 160
1 161
1 162
1 163
1 164
1 165
1 166
1 167
1 168
1 169
1 170
1 171
1 172
1 173
1 174
1 175
1 176
1 177
1 178
1 179
1 180
1 181
1 182
1 183
1 184
1 185
1 186
1 187
1 188
1 189
1 190
1 191
1 192
1 193
1 194
1 195
1 196
1 197
1 198
1 199
1 200
1 201
1 202
1 203
1 204
1 205
1 206
1 207
1 208
1 209
1 210
1 211
1 212
1 213
1 214
1 215
1 216
1 217
1 218
1 219
1 220
1 221
1 222
1 223
1 224
1 225
1 226
1 227
1 228
1 229
1 230
1 231
1 232
1 233
1 234
1 235
1 236
1 237
1 238
1 239
1 240
1 241
1 242
1 243
1 244
1 245
1 246
1 247
1 248
1 249
1 250
1 251
1 252
1 253
1 254
1 255
1 256
1 257
1 258
1 259
1 260
1 261
1 262
1 263
1 264
1 265
1 266
1 267
1 268
1 269
1 270
1 271
1 272
1 273
1 274
1 275
1 276
1 277
1 278
1 279
1 280
1 281
1 282
1 283
1 284
1 285
1 286
1 287
1 288
1 289
1 290
1 291
1 292
1 293
1 294
1 295
1 296
1 297
1 298
1 299
1 300
1 301
1 302
1 303
1 304
1 305
1 306
1 307
1 308
1 309
1 310
1 311
1 312
1 313
1 314
1 315
1 316
1 317
1 318
1 319
1 320
1 321
1 322
1 323
1 324
1 325
1 326
1 327
1 328
1 329
1 330
1 331
1 332
1 333
1 334
1 335
1 336
1 337
1 338
1 339
1 340
1 341
1 342
1 343
1 344
1 345
1 346
1 347
1 348
1 349
1 350
1 351
1 352
1 353
1 354
1 355
1 356
1 357
1 358
1 359
1 360
1 361
1 362
1 363
1 364
1 365
1 366
1 367
1 368
1 369
1 370
1 371
1 372
1 373
1 374
1 375
1 376
1 377
1 378
1 379
1 380
1 381
1 382
1 383
1 384
1 385
1 386
1 387
1 388
1 389
1 390
1 391
1 392
1 393
1 394
1 395
1 396
1 397
1 398
1 399
1 400
1 401
1 402
1 403
1 404
1 405
1 406
1 407
1 408
1 409
1 410
1 411
1 412
1 413
1 414
1 415
1 416
1 417
1 418
1 419
1 420
1 421
1 422
1 423
1 424
1 425
1 426
1 427
1 428
1 429
1 430
1 431
1 432
1 433
1 434
1 435
1 436
1 437
1 438
1 439
1 440
1 441
1 442
1 443
1 444
1 445
1 446
1 447
1 448
1 449
1 450
1 451
1 452
1 453
1 454
1 455
1 456
1 457
1 458
1 459
1 460
1 461
1 462
1 463
1 464
1 465
1 466
1 467
1 468
1 469
1 470
1 471
1 472
1 473
1 474
1 475
1 476
1 477
1 478
1 479
1 480
1 481
1 482
1 483
1 484
1 485
1 486
1 487
1 488
1 489
1 490
1 491
1 492
1 493
1 494
1 495
1 496
1 497
1 498
1 499
1 500
1 501
1 502
1 503
1 504
1 505
1 506
1 507
1 508
1 509
1 510
1 511
1 512
1 513
1 514
1 515
1 516
1 517
1 518
1 519
1 520
1 521
1 522
1 523
1 524
1 525
1 526
1 527
1 528
1 529
1 530
1 531
1 532
1 533
1 534
1 535
1 536
1 537
1 538
1 539
1 540
1 541
1 542
1 543
1 544
1 545
1 546
1 547
1 548
1 549
1 550
1 551
1 552
1 553
1 554
1 555
1 556
1 557
1 558
1 559
1 560
1 561
1 562
1 563
1 564
1 565
1 566
1 567
1 568
1 569
1 570
1 571
1 572
1 573
1 574
1 575
1 576
1 577
1 578
1 579
1 580
1 581
1 582
1 583
1 584
1 585
1 586
1 587
1 588
1 589
1 590
1 591
1 592
1 593
1 594
1 595
1 596
1 597
1 598
1 599
1 600
1 601
1 602
1 603
1 604
1 605
1 606
1 607
1 608
1 609
1 610
1 611
1 612
1 613
1 614
1 615
1 616
1 617
1 618
1 619
1 620
1 621
1 622
1 623
1 624
1 625
1 626
1 627
1 628
1 629
1 630
1 631
1 632
1 633
1 634
1 635
1 636
1 637
1 638
1 639
1 640
1 641
1 642
1 643
1 644
1 645
1 646
1 647
1 648
1 649
1 650
1 651
1 652
1 653
1 654
1 655
1 656
1 657
1 658
CELL_TYPES 659
1 1 1 1 1 1 1 1 1 1 1 1 1 1 1 1 1 1 1 1 1 1 1 1 1 1 1 1 1 1 1 1 1 1 1 1 1 1 1 1 1 1 1 1 1 1 1 1 1 1 1 1 1 1 1 1 1 1 1 1 1 1 1 1 1 1 1 1 1 1 1 1 1 1 1 1 1 1 1 1 1 1 1 1 1 1 1 1 1 1 1 1 1 1 1 1 1 1 1 1 1 1 1 1 1 1 1 1 1 1 1 1 1 1 1 1 1 1 1 1 1 1 1 1 1 1 1 1 1 1 1 1 1 1 1 1 1 1 1 1 1 1 1 1 1 1 1 1 1 1 1 1 1 1 1 1 1 1 1 1 1 1 1 1 1 1 1 1 1 1 1 1 1 1 1 1 1 1 1 1 1 1 1 1 1 1 1 1 1 1 1 1 1 1 1 1 1 1 1 1 1 1 1 1 1 1 1 1 1 1 1 1 1 1 1 1 1 1 1 1 1 1 1 1 1 1 1 1 1 1 1 1 1 1 1 1 1 1 1 1 1 1 1 1 1 1 1 1 1 1 1 1 1 1 1 1 1 1 1 1 1 1 1 1 1 1 1 1 1 1 1 1 1 1 1 1 1 1 1 1 1 1 1 1 1 1 1 1 1 1 1 1 1 1 1 1 1 1 1 1 1 1 1 1 1 1 1 1 1 1 1 1 1 1 1 1 1 1 1 1 1 1 1 1 1 1 1 1 1 1 1 1 1 1 1 1 1 1 1 1 1 1 1 1 1 1 1 1 1 1 1 1 1 1 1 1 1 1 1 1 1 1 1 1 1 1 1 1 1 1 1 1 1 1 1 1 1 1 1 1 1 1 1 1 1 1 1 1 1 1 1 1 1 1 1 1 1 1 1 1 1 1 1 1 1 1 1 1 1 1 1 1 1 1 1 1 1 1 1 1 1 1 1 1 1 1 1 1 1 1 1 1 1 1 1 1 1 1 1 1 1 1 1 1 1 1 1 1 1 1 1 1 1 1 1 1 1 1 1 1 1 1 1 1 1 1 1 1 1 1 1 1 1 1 1 1 1 1 1 1 1 1 1 1 1 1 1 1 1 1 1 1 1 1 1 1 1 1 1 1 1 1 1 1 1 1 1 1 1 1 1 1 1 1 1 1 1 1 1 1 1 1 1 1 1 1 1 1 1 1 1 1 1 1 1 1 1 1 1 1 1 1 1 1 1 1 1 1 1 1 1 1 1 1 1 1 1 1 1 1 1 1 1 1 1 1 1 1 1 1 1 1 1 1 1 1 1 1 1 1 1 1 1 1 1 1 1 1 1 1 1 1 1 1 1 1 1 1 1 1 1 1 1 1 1 1 1 1 1 1 1 1 1 1 1 1 1 1 1 1 1 1 1 1 1 1 1 1 1 1 1 1 1 1 1 1 1 1 1 1 1 1 1 1 1 1 1 1 1 1 1 1 1 1 1 1 1 1 1 
CELL_DATA 659
COLOR_SCALARS lut 1
0.0894907
0.177996
0.362206
0.682658
0.664804
0.531973
0.40899
0.334635
0.309152
0.294335
0.294649
0.309876
0.34757
0.448943
0.613418
0.362189
0.218742
0.0950026
0.0842172
0.171256
0.191532
0.307535
0.403193
0.0751072
0.0733207
0.0779299
0.0747378
0.0518463
0.0637929
0.0435824
0.0718905
0.0434994
0.0421655
0.0458772
0.0410811
0.0852445
0.0457255
0.043555
0.041507
0.0414875
0.040764
0.0960984
0.049226
0.0432821
0.0556615
0.633701
0.0513702
0.656033
0.0672451
0.046588
0.040444
0.0482969
0.0410274
0.0681205
0.0561767
0.0484986
0.0500905
0.0502528
0.0424226
0.0411706
0.0664095
0.053075
0.0460083
0.0493034
0.0580046
0.110312
0.0785242
0.0520099
0.0424419
0.0460615
0.0480181
0.635067
0.0445437
0.0467114
0.0494269
0.0573847
0.0528887
0.0453948
0.0605084
0.063783
0.0790342
0.0575174
0.0546677
0.0574456
0.0623702
0.0525503
0.0853589
0.0599628
0.0596224
0.0515684
0.0844377
0.086675
0.0572073
0.0570721
0.0556081
0.0730877
1
0.0533597
0.0548267
0.0651809
0.504892
0.064581
0.0667517
0.0874753
0.0636497
0.0567361
0.055628
0.0923017
0.0531509
0.0560166
0.0550629
0.101902
0.0742124
0.0650125
0.0503065
0.0549267
0.0716544
0.0712828
0.0532174
0.0540145
0.100138
0.0560781
0.0552458
0.0485561
0.0616397
0.0773184
0.0555505
0.0507401
0.0582128
0.0526858
0.0780159
0.0577053
0.0475303
0.0740775
0.0564273
0.0698773
0.0812444
0.0613716
0.0597746
0.103774
0.0549654
0.0481054
0.0535627
0.0514328
0.0773562
0.331409
0.0541351
0.0600265
0.0571672
0.711956
0.0516821
0.0518338
0.0742545
0.0435727
0.0463719
0.0523009
0.0569222
0.0635414
0.0420216
0.0420001
0.0528701
0.0745364
0.045392
0.0660788
0.0458751
0.0470011
0.0491431
0.0624863
0.0712057
0.0816518
0.0484113
0.0616666
0.0563238
0.0659153
0.0401598
0.0460534
0.057889
0.0679969
0.227239
0.0405593
0.0593118
0.0468075
0.0553838
0.0492355
0.0562835
0.0645808
0.0715909
0.0494241
0.0522749
0.0495767
0.0501532
0.054623
0.0428562
0.0413384
0.0560752
0.0482714
0.0475879
0.0427424
0.0438551
0.0516381
0.0443484
0.0816669
0.0600622
0.0411154
0.0421672
0.0514555
0.0463369
0.056288
0.0452368
0.0400235
0.0487015
0.0424443
0.0387852
0.144657
0.046701
0.0481274
0.0760123
0.0405009
0.0548504
0.0412645
0.04464
0.0399342
0.0509386
0.0461985
0.0573196
0.044772
0.039014
0.0511004
0.0462974
0.0446409
0.0452024
0.388658
0.0424447
0.0448549
0.0391617
0.043985
0.058996
0.0439006
0.0623046
0.0615632
0.0490817
0.0377318
0.0360283
0.0529217
0.0448537
0.0506697
0.0483515
0.0450866
0.0406096
0.0467263
0.0550877
0.0749585
0.0356638
0.0463602
0.0460283
0.0484974
0.0347019
0.0554872
0.0437858
0.0554965
0.0412193
0.0369971
0.0909479
0.0878166
0.0636116
0.0750163
0.051091
0.0359364
0.0476452
0.284657
0.0697691
0.0609421
0.0495681
0.0649623
0.0649444
0.0546419
0.0759918
0.0485907
0.039059
0.0501223
0.0576331
0.069687
0.0686977
0.038423
0.0698611
0.0790765
0.0753334
0.0713776
0.0560181
0.0439762
0.0552754
0.0640727
0.0670476
0.0742622
0.0474618
0.0544344
0.0528405
0.0604894
0.0469157
0.0370122
0.0472203
0.0640632
0.0543749
0.0507149
0.0486944
0.0432413
0.0617531
0.0477251
0.0530259
0.0473638
0.0700303
0.0517088
0.0509023
0.0429125
0.052472
0.0483092
0.0504372
0.0607975
0.0384415
0.085737
0.0545266
0.0622363
0.0557554
0.0462619
0.0610355
0.0603015
0.0641989
0.226155
0.0487523
0.0556652
0.0593972
0.0559366
0.0504764
0.0502267
0.0480643
0.0997194
0.0542607
0.0460782
0.0519529
0.0450623
0.0590997
0.0429951
0.0451862
0.0457557
0.0494247
0.0514851
0.0519556
0.0396011
0.0506868
0.0726923
0.0561013
0.0448317
0.061331
0.0624508
0.0602605
0.0490116
0.0530431
0.0501785
0.0614155
0.0498889
0.0546618
0.0442889
0.0693043
0.127886
0.0553671
0.0528167
0.0533588
0.0540809
0.0782546
0.0519846
0.0445625
0.0474873
0.0425277
0.0501928
0.0424875
0.0604312
0.053083
0.0442882
0.0564283
0.0474539
0.0680122
0.053285
0.0429759
0.0668107
0.0458442
0.0637305
0.0543374
0.057566
0.0582678
0.0509511
0.0666397
0.0609662
0.0590225
0.0533816
0.0448992
0.0630166
0.0488855
0.0524623
0.0654061
0.0602712
0.0518818
0.0735077
0.047081
0.0447425
0.0446395
0.0450295
0.0443407
0.0571041
0.0469977
0.0801294
0.0464057
0.0582513
0.0698536
0.132614
0.0514729
0.0681153
0.0508786
0.0491936
0.0590154
0.062765
0.0786265
0.0798653
0.0793566
0.0525781
0.0451711
0.0659947
0.0627024
0.0576051
0.0853257
0.053402
0.063431
0.0476157
0.055456
0.0680859
0.0477533
0.0539439
0.067192
0.0522685
0.0572694
0.0612006
0.0493433
0.0499219
0.0572949
0.0475518
0.0788838
0.0637261
0.0543797
0.0523389
0.0749027
0.0822192
0.0527101
0.0891382
0.0545011
0.0579037
0.0478257
0.0678455
0.0547568
0.0720222
0.0638695
0.0578006
0.047195
0.0545856
0.0796445
0.0457788
0.0462842
0.0517174
0.0810365
0.0448869
0.04661
0.0464965
0.0927048
0.10857
0.097375
0.0511879
0.0696503
0.0624493
0.0570563
0.0596424
0.0583395
0.0461895
0.0714847
0.0438843
0.0858158
0.0481271
0.0534407
0.0650245
0.0663026
0.0638767
0.0745171
0.0784065
0.0748241
0.0983065
0.065665
0.0409766
0.0482981
0.0888439
0.0687906
0.074792
0.0595992
0.0708106
0.0696725
0.0608953
0.0617863
0.068457
0.121738
0.0477955
0.0445761
0.0985195
0.0555267
0.0794163
0.0686792
0.077919
0.0598389
0.130082
0.0925849
0.0925276
0.0590695
0.118927
0.0817813
0.122837
0.0639777
0.0800994
0.0622104
0.0441215
0.0765934
0.052444
0.064034
0.0867394
0.0635022
0.0684105
0.0645276
0.0622074
0.0704135
0.124081
0.054435
0.0575794
0.0992862
0.0778394
0.0467953
0.0994959
0.105834
0.0544651
0.0563927
0.0722871
0.065758
0.0687549
0.0703515
0.0804398
0.0613157
0.0700648
0.0647618
0.105821
0.071366
0.110159
0.0717333
0.0549575
0.0588805
0.105931
0.0875506
0.0979195
0.058804
0.0598684
0.0663102
0.0678833
0.194863
0.0732006
0.0854212
0.0580283
0.0549831
0.110134
0.0571013
0.0564302
0.0630696
0.0494406
0.0544578
0.0728472
0.0786909
0.0462821
0.0696019
0.0786313
0.0803195
0.0682976
0.0892447
0.071168
0.211415
0.0536926
0.20128
0.0553582
0.0953477
0.0882417
0.114482
0.253262
0.138048
0.099115
0.0616704
0.0542901
0.0583144
0.113198
0.120022
0.0954109
0.160491
0.140046
0.131222
0.0538742
0.125988
0.347551
0.100221
0.193237
0.0657017
0.0986576
0.097368
0.0549828
0.121798
0.107808
0.057043
0.0961589
0.153279
0.132722
0.218231
0.0955725
0.0623402
0.128181
0.068133
0.10051
0.0957753
0.14819
0.0747034
0.10933
0.101452
0.118834
0.126527
0.086927
0.0569081
0.0723469
0.0700917
0.234361
0.218916
0.118814
0.102681
0.105462
0.0638147
0.103216
0.104096
0.0882406
0.164814
0.251793
0.311628
0.18937
0.095263
0.11734
0.152151
0.221328
0.174392
0.154379
0.171177
0.172208
0.0944394
0.0824717
0.0516316
