# vtk DataFile Version 1.0
Unstructured Grid Example
ASCII

DATASET UNSTRUCTURED_GRID
POINTS 1146 float
8 513 0
22 513 0
49 513 0
96 513 0
152 513 0
179 513 0
210 513 0
238 513 0
256 513 0
281 513 0
298 513 0
318 513 0
337 513 0
371 513 0
422 513 0
463 513 0
484 513 0
503 513 0
0 506 0
395 506 0
511 504 0
498 496 0
299 495 0
0 492 0
327 491 0
456 491 0
356 490 0
222 489 0
512 489 0
21 488 0
184 487 0
273 485 0
66 484 0
113 481 0
248 481 0
0 472 0
318 470 0
475 469 0
283 468 0
300 467 0
268 466 0
346 466 0
406 466 0
26 464 0
213 463 0
512 458 0
290 457 0
248 456 0
271 456 0
304 455 0
261 454 0
281 454 0
1 451 0
322 450 0
236 449 0
297 448 0
312 448 0
285 446 0
246 444 0
153 443 0
263 443 0
276 443 0
64 441 0
304 441 0
293 440 0
328 440 0
369 440 0
221 439 0
237 438 0
348 437 0
481 437 0
253 436 0
316 435 0
280 434 0
202 432 0
267 431 0
290 431 0
300 429 0
336 429 0
250 428 0
234 427 0
258 425 0
315 425 0
326 425 0
392 425 0
279 424 0
512 423 0
268 422 0
0 421 0
244 421 0
346 420 0
292 419 0
301 419 0
253 418 0
225 417 0
366 416 0
309 415 0
330 415 0
281 414 0
267 412 0
319 412 0
206 411 0
248 409 0
343 409 0
235 408 0
257 408 0
288 408 0
437 407 0
297 406 0
306 406 0
327 406 0
279 404 0
263 402 0
247 400 0
319 400 0
334 398 0
346 398 0
237 397 0
306 397 0
388 397 0
129 396 0
256 396 0
293 395 0
225 394 0
273 394 0
512 394 0
264 393 0
285 392 0
249 391 0
365 391 0
321 390 0
187 389 0
311 389 0
335 388 0
211 386 0
295 386 0
271 385 0
255 384 0
347 383 0
305 381 0
325 381 0
357 381 0
241 380 0
70 379 0
225 379 0
282 379 0
378 379 0
334 378 0
397 378 0
264 377 0
291 377 0
249 376 0
480 375 0
349 374 0
364 374 0
311 373 0
159 372 0
233 372 0
300 372 0
212 371 0
321 371 0
275 369 0
336 369 0
194 367 0
241 367 0
286 367 0
223 366 0
265 366 0
374 365 0
387 365 0
305 364 0
364 364 0
255 363 0
347 363 0
403 362 0
294 361 0
329 361 0
0 360 0
338 360 0
315 359 0
234 358 0
245 358 0
357 357 0
512 357 0
369 356 0
263 355 0
276 355 0
286 355 0
302 355 0
211 354 0
253 354 0
345 354 0
385 354 0
224 353 0
325 352 0
128 350 0
316 350 0
337 350 0
430 349 0
269 348 0
242 347 0
354 347 0
415 346 0
252 345 0
288 345 0
395 345 0
373 343 0
219 342 0
229 342 0
328 342 0
363 342 0
199 341 0
301 341 0
263 340 0
311 340 0
382 339 0
339 338 0
160 337 0
276 337 0
352 337 0
404 337 0
460 336 0
253 335 0
239 334 0
331 334 0
286 333 0
371 333 0
228 332 0
322 332 0
263 331 0
301 331 0
345 330 0
272 329 0
390 329 0
432 327 0
245 326 0
316 325 0
333 325 0
207 324 0
406 324 0
258 323 0
291 323 0
361 323 0
233 322 0
350 322 0
416 322 0
280 321 0
492 321 0
302 320 0
379 320 0
250 318 0
338 318 0
268 316 0
322 316 0
258 314 0
394 314 0
423 314 0
512 314 0
45 313 0
405 313 0
444 313 0
216 311 0
285 311 0
306 311 0
128 310 0
244 310 0
331 310 0
373 310 0
179 309 0
348 308 0
0 307 0
233 307 0
276 307 0
293 307 0
362 307 0
252 306 0
430 306 0
462 306 0
262 305 0
323 305 0
339 305 0
383 305 0
314 304 0
420 303 0
398 302 0
408 302 0
269 300 0
279 298 0
306 298 0
372 298 0
89 297 0
242 297 0
254 297 0
433 297 0
333 296 0
492 296 0
228 295 0
292 295 0
349 295 0
362 295 0
383 294 0
444 294 0
324 293 0
315 292 0
399 292 0
410 292 0
157 291 0
273 291 0
303 289 0
453 289 0
249 288 0
265 288 0
337 288 0
391 288 0
203 287 0
352 287 0
424 287 0
512 287 0
279 285 0
291 285 0
362 285 0
475 285 0
239 284 0
326 284 0
374 284 0
344 283 0
440 283 0
299 281 0
314 281 0
410 281 0
460 280 0
449 279 0
258 278 0
337 278 0
354 278 0
385 278 0
248 277 0
398 276 0
434 276 0
417 275 0
6 274 0
181 274 0
222 274 0
269 274 0
279 274 0
370 274 0
486 274 0
306 273 0
318 272 0
426 272 0
455 272 0
291 271 0
328 270 0
390 270 0
355 269 0
474 269 0
406 268 0
255 267 0
343 267 0
448 267 0
463 267 0
381 266 0
123 265 0
239 265 0
267 265 0
284 265 0
335 265 0
363 265 0
418 265 0
203 264 0
304 264 0
495 264 0
153 263 0
295 263 0
323 263 0
512 263 0
435 262 0
37 261 0
372 261 0
480 261 0
348 260 0
275 259 0
357 259 0
456 259 0
78 258 0
311 258 0
405 258 0
424 258 0
395 257 0
290 256 0
335 256 0
381 256 0
469 256 0
184 255 0
257 254 0
325 254 0
364 254 0
413 254 0
504 254 0
0 253 0
302 253 0
446 252 0
342 251 0
461 251 0
480 251 0
401 250 0
311 249 0
108 248 0
166 248 0
277 248 0
390 248 0
266 247 0
288 247 0
334 247 0
354 247 0
379 247 0
422 247 0
435 247 0
229 246 0
409 246 0
131 245 0
203 245 0
246 245 0
297 245 0
320 245 0
364 245 0
469 244 0
496 244 0
443 243 0
510 242 0
305 241 0
344 241 0
398 241 0
416 241 0
218 240 0
327 240 0
457 240 0
352 239 0
478 239 0
187 238 0
281 238 0
369 238 0
382 238 0
145 237 0
335 237 0
360 237 0
255 236 0
267 236 0
156 235 0
170 235 0
234 235 0
292 235 0
84 234 0
244 234 0
430 234 0
118 233 0
345 233 0
409 233 0
491 233 0
421 232 0
443 232 0
0 231 0
45 231 0
301 231 0
312 231 0
460 231 0
511 231 0
276 230 0
323 230 0
480 230 0
68 229 0
226 229 0
398 229 0
471 229 0
100 228 0
360 228 0
378 228 0
388 228 0
188 227 0
286 227 0
339 227 0
351 227 0
142 226 0
205 226 0
129 225 0
160 225 0
174 225 0
215 224 0
241 224 0
331 224 0
407 224 0
448 224 0
268 223 0
489 223 0
296 222 0
421 222 0
476 222 0
500 222 0
195 221 0
232 221 0
255 221 0
320 221 0
345 221 0
371 221 0
22 220 0
85 220 0
182 220 0
277 220 0
383 220 0
433 220 0
311 219 0
354 219 0
510 219 0
400 218 0
457 218 0
136 217 0
147 217 0
288 217 0
203 216 0
223 216 0
328 216 0
412 216 0
468 216 0
157 215 0
263 215 0
339 215 0
109 214 0
174 214 0
249 214 0
301 214 0
424 214 0
480 214 0
122 213 0
268 213 0
375 213 0
490 213 0
0 212 0
364 212 0
184 211 0
237 211 0
271 211 0
394 211 0
432 211 0
442 211 0
451 211 0
77 210 0
165 210 0
193 210 0
211 210 0
460 210 0
504 210 0
54 209 0
66 209 0
283 209 0
319 209 0
134 208 0
150 207 0
201 207 0
223 207 0
295 207 0
328 207 0
344 207 0
411 207 0
471 207 0
89 206 0
261 206 0
100 205 0
353 205 0
401 205 0
481 205 0
174 204 0
372 204 0
384 204 0
420 204 0
429 204 0
110 203 0
142 203 0
249 203 0
275 203 0
313 203 0
363 203 0
512 203 0
42 202 0
159 202 0
183 202 0
231 202 0
240 202 0
495 202 0
120 201 0
192 201 0
302 201 0
322 201 0
443 201 0
30 200 0
288 200 0
333 200 0
71 199 0
81 199 0
129 199 0
204 199 0
62 198 0
430 198 0
452 198 0
5 197 0
406 197 0
504 197 0
103 196 0
169 196 0
214 196 0
390 196 0
360 195 0
372 195 0
416 195 0
465 195 0
91 194 0
145 194 0
178 194 0
260 194 0
270 194 0
309 194 0
381 194 0
222 193 0
235 193 0
247 193 0
346 193 0
438 193 0
476 193 0
488 193 0
48 192 0
280 192 0
18 191 0
75 191 0
289 191 0
132 190 0
457 190 0
511 190 0
57 189 0
115 189 0
157 189 0
201 189 0
302 189 0
316 189 0
191 188 0
339 188 0
366 188 0
40 187 0
330 187 0
428 187 0
167 186 0
255 186 0
391 186 0
448 186 0
0 185 0
83 185 0
100 185 0
267 185 0
352 185 0
401 185 0
150 184 0
214 184 0
224 184 0
245 184 0
413 184 0
503 184 0
31 183 0
70 183 0
293 183 0
235 182 0
484 182 0
109 181 0
125 181 0
134 181 0
310 181 0
472 181 0
383 180 0
10 179 0
282 179 0
371 179 0
462 179 0
22 178 0
157 178 0
179 178 0
207 178 0
51 177 0
144 177 0
191 177 0
324 177 0
341 177 0
360 177 0
40 176 0
60 176 0
96 176 0
300 176 0
87 175 0
116 175 0
250 175 0
351 175 0
77 174 0
165 174 0
269 174 0
402 174 0
452 174 0
511 174 0
0 173 0
231 173 0
439 173 0
497 173 0
68 172 0
391 172 0
414 172 0
425 172 0
104 171 0
310 171 0
331 171 0
33 170 0
138 170 0
199 170 0
281 170 0
376 170 0
471 170 0
218 169 0
9 168 0
321 168 0
21 167 0
59 167 0
122 167 0
148 167 0
290 167 0
366 167 0
112 166 0
342 166 0
47 165 0
89 165 0
186 165 0
353 165 0
78 164 0
98 164 0
252 164 0
272 164 0
174 163 0
237 163 0
405 163 0
460 163 0
512 163 0
39 162 0
68 162 0
163 162 0
208 162 0
418 162 0
435 162 0
446 162 0
482 162 0
2 161 0
327 161 0
493 161 0
14 160 0
225 160 0
380 160 0
27 159 0
261 159 0
280 159 0
306 159 0
504 159 0
52 158 0
132 158 0
83 157 0
292 157 0
360 157 0
245 156 0
60 155 0
117 155 0
36 154 0
74 154 0
272 154 0
321 154 0
344 154 0
99 153 0
8 152 0
20 152 0
186 152 0
235 152 0
370 152 0
439 152 0
450 152 0
400 151 0
462 151 0
495 151 0
47 150 0
170 150 0
425 150 0
474 150 0
508 150 0
126 149 0
139 149 0
206 149 0
264 149 0
286 149 0
386 149 0
301 148 0
313 148 0
152 147 0
330 147 0
485 147 0
85 146 0
253 146 0
96 144 0
228 144 0
273 144 0
412 144 0
63 143 0
117 143 0
363 143 0
374 143 0
497 142 0
27 141 0
107 141 0
440 141 0
36 140 0
46 140 0
74 140 0
3 139 0
55 139 0
197 139 0
238 139 0
291 139 0
14 138 0
216 138 0
281 138 0
462 138 0
163 137 0
175 137 0
248 137 0
308 137 0
427 137 0
488 137 0
346 136 0
508 136 0
127 135 0
88 134 0
143 134 0
391 134 0
65 133 0
325 133 0
373 133 0
448 133 0
79 132 0
262 132 0
272 132 0
405 132 0
475 132 0
39 131 0
225 131 0
360 131 0
29 130 0
102 130 0
0 129 0
499 129 0
111 128 0
153 128 0
214 128 0
235 128 0
172 126 0
9 125 0
86 125 0
120 125 0
191 125 0
246 125 0
292 125 0
380 125 0
415 125 0
464 125 0
18 124 0
51 124 0
132 124 0
512 124 0
276 123 0
312 123 0
433 123 0
40 122 0
397 122 0
452 122 0
66 121 0
103 121 0
257 121 0
346 121 0
28 120 0
78 120 0
181 120 0
206 120 0
360 119 0
153 118 0
165 118 0
328 118 0
92 117 0
141 117 0
237 117 0
267 117 0
479 117 0
219 115 0
6 114 0
49 114 0
16 113 0
200 113 0
372 113 0
174 112 0
247 112 0
443 112 0
462 112 0
59 111 0
100 111 0
110 111 0
130 111 0
411 111 0
425 111 0
81 110 0
260 110 0
392 110 0
119 109 0
149 109 0
159 109 0
191 109 0
494 109 0
68 108 0
292 108 0
512 108 0
34 107 0
381 107 0
209 104 0
231 104 0
313 104 0
341 104 0
105 103 0
140 103 0
75 102 0
168 102 0
179 102 0
198 102 0
0 101 0
12 101 0
53 101 0
86 101 0
242 101 0
116 100 0
401 100 0
96 99 0
278 99 0
416 99 0
444 99 0
66 98 0
148 98 0
127 96 0
159 96 0
218 96 0
462 96 0
205 95 0
27 94 0
140 94 0
193 94 0
250 94 0
366 94 0
183 93 0
236 93 0
432 93 0
74 92 0
388 92 0
102 91 0
172 90 0
119 89 0
497 89 0
512 89 0
265 87 0
135 86 0
162 86 0
303 86 0
350 85 0
90 84 0
151 84 0
110 83 0
189 83 0
203 83 0
222 83 0
475 83 0
40 82 0
242 82 0
284 81 0
253 80 0
333 80 0
178 78 0
0 77 0
119 77 0
62 76 0
100 76 0
232 76 0
134 75 0
165 75 0
453 75 0
424 74 0
143 73 0
401 73 0
500 72 0
19 71 0
86 71 0
318 71 0
358 71 0
198 70 0
216 70 0
244 70 0
465 70 0
268 68 0
440 68 0
109 67 0
[...]
CELL_DATA 1146
COLOR_SCALARS lut 1
0.0565914
0.11256
0.229049
0.431694
0.420403
0.336405
0.258634
0.211614
0.195499
0.186129
0.186328
0.195957
0.219794
0.283899
0.387908
0.229038
0.138326
0.060077
0.0532566
0.372802
0.0627043
0.15154
0.252914
0.108297
0.298355
0.372522
0.368156
0.351919
0.12112
0.226899
0.459659
0.231161
0.458208
0.670426
0.25916
0.194477
0.150331
0.407622
0.0942373
0.0977665
0.0930605
0.277082
0.635197
0.366064
0.34005
0.254968
0.0474957
0.077124
0.046366
0.0492807
0.0472621
0.0384833
0.288441
0.0613536
0.0917632
0.0327862
0.0403408
0.0275603
0.0454615
0.799802
0.0275078
0.0266643
0.69406
0.0290115
0.0259785
0.0539062
0.248706
0.147666
0.0660957
0.117903
0.513188
0.0289155
0.0386382
0.027543
0.25925
0.0262479
0.0262356
0.025778
0.06077
0.0311291
0.0807448
0.0273704
0.0351988
0.0481648
0.352963
0.0368166
0.400735
0.0324851
0.414857
0.0425239
0.0841951
0.0294609
0.0255757
0.0305416
0.12261
0.182172
0.0259446
0.0430775
0.0415238
0.0355246
0.0306691
0.217462
0.0316758
0.0709111
0.0608817
0.0302115
0.0317785
0.769475
0.0268269
0.0260352
0.0419955
0.0335632
0.0290944
0.0311781
0.0366805
0.0596123
0.0697584
0.0496565
0.0328896
0.239254
0.753858
0.0268391
0.029128
0.0951435
0.0303653
0.401599
0.0281682
0.029539
0.0312562
0.105781
0.0464317
0.281621
0.0459416
0.0481289
0.144129
0.0362885
0.0334453
0.0287064
0.0382638
0.0492407
0.0403346
0.049979
0.0363724
1
0.0629476
0.0419638
0.111202
0.0345703
0.193879
0.036327
0.0394412
0.0332313
0.531348
0.0351946
0.0539786
0.0426829
0.411101
0.0379188
0.041278
0.10239
0.0377035
0.0584682
0.0326104
0.199452
0.0368175
0.0525778
0.0533961
0.0488059
0.0548108
0.094194
0.0361763
0.04464
0.0360908
0.035165
0.147075
0.0462186
0.0387315
0.632372
0.0353037
0.0337432
0.0346709
0.0348282
0.0412186
0.31928
0.0408392
0.0422119
0.055317
0.0587407
0.0402503
0.1093
0.0358783
0.0351776
0.058369
0.0535956
0.0349397
0.634738
0.0336111
0.0354234
0.216458
0.0433722
0.0348202
0.0497917
0.132552
0.0404984
0.0567833
0.0644402
0.0469298
0.0762472
0.0411121
0.0318124
0.0601728
0.187193
0.0570303
0.0347341
0.0453122
0.0450772
0.0336532
0.421288
0.0341573
0.0516579
0.0633246
0.384174
0.0354622
0.0349359
0.0307055
0.0389792
0.0619493
0.048894
0.0351286
0.0320867
0.0517807
0.0368122
0.033317
0.0493351
0.116528
0.0364912
0.0442741
0.0300569
0.1579
0.0468446
0.0350148
0.035683
0.0706693
0.0554247
0.0441884
0.0513767
0.0388097
0.326105
0.0377998
0.0656238
0.0347586
0.0304205
0.0396719
0.0338715
0.0325247
0.0706903
0.0489179
0.209574
0.725548
0.0537364
0.11395
0.137569
0.0378745
0.0342335
0.515377
0.0379591
0.0296628
0.0767731
0.345443
0.036151
0.450221
0.0629367
0.0326823
0.0327783
0.0602333
0.0291824
0.0469565
0.161171
0.0275542
0.031715
0.0293243
0.0693852
0.0330736
0.035996
0.0550274
0.0401818
0.0265733
0.0265597
0.0334336
0.0552754
0.7045
0.0471347
0.0287046
0.0417864
0.0290102
0.236832
0.106489
0.0297222
0.0310768
0.0395146
0.0450285
0.0516343
0.0306139
0.0356778
0.0389962
0.0356176
0.380447
0.0252929
0.0357137
0.0543697
0.041683
0.025396
0.0291229
0.0366074
0.256929
0.0310665
0.0429993
0.1437
0.0256486
0.0303171
0.0375071
0.116295
0.0831828
0.0326464
0.0419977
0.0295997
0.0350232
0.0311351
0.0355921
0.0408391
0.0452721
0.0312545
0.0330572
0.0312544
0.0313509
0.0317155
0.0593953
0.0418793
0.0345421
0.0401851
0.349015
0.294528
0.184903
0.0271011
0.0261412
0.0354604
0.117078
0.0305255
0.0300933
0.0358731
0.0304619
0.0270291
0.0277327
0.0326545
0.0280447
0.0516439
0.0379816
0.0549821
0.0260003
0.0266654
0.032539
0.0293021
0.25411
0.118681
0.0355949
0.0286065
0.0253098
0.0308574
0.0307975
0.235624
0.027101
0.109169
0.214565
0.0268406
0.0245267
0.0914769
0.0295324
0.470353
0.0304344
0.0480681
0.0256117
0.0346859
0.0260945
0.0282291
0.329474
0.0252532
0.0322121
0.0292146
0.0362473
0.0283126
0.0246714
0.0323145
0.0292772
0.185562
0.0760812
0.0245409
0.0282296
0.0285847
0.082995
0.245777
0.0268408
0.028365
0.0247648
0.0278149
0.0373075
0.035738
0.0277615
0.211292
0.148682
0.0393997
0.0389309
0.0622393
0.0310379
0.0238605
0.0227833
0.0334662
0.0283642
0.0320421
0.105854
0.0305762
0.128579
0.135652
0.0814938
0.0314489
0.0285115
0.0256804
0.0295484
0.0685768
0.0348359
0.0474017
0.0350718
0.0225528
0.041312
0.0293169
0.101923
0.029107
0.0306684
0.0219445
0.0350886
0.0894092
0.0385187
0.0276889
0.0350945
0.0732069
0.026066
0.0233959
0.0575129
0.0575263
0.072609
0.0832844
0.0555328
0.0402262
0.173563
0.0474382
0.0323085
0.114549
0.0227252
0.0391848
0.056025
0.0301295
0.0408943
0.180009
0.228701
0.0441201
0.0385381
0.0313455
0.0410803
0.041069
0.0350712
0.034554
0.159447
0.0480551
0.0457529
0.0307274
0.124579
0.0246998
0.031696
0.0364455
0.0440681
0.0434425
0.0242976
0.0233671
0.0441782
0.0500058
0.0588605
0.0476387
0.0451372
0.0464907
0.0354243
0.0278093
0.0424304
0.0349546
0.0405178
0.0423991
0.0469614
0.0300135
0.0323901
0.0517067
0.0344228
0.0334148
0.0382518
0.0296682
0.0234055
0.0298608
0.227093
0.0978622
0.0325564
0.0405118
0.0343852
0.0320707
0.030793
0.0273446
0.0390509
0.0412768
0.03018
0.0335321
0.0299516
0.0442852
0.0326992
0.0321892
0.0271367
0.0331818
0.0305494
0.0318951
0.0384466
0.0243093
0.0542177
0.0344811
0.0393565
0.0352582
0.0292547
0.0353465
0.0385972
0.038133
0.0339451
0.0405976
0.143014
0.0344482
0.0308296
0.0352011
0.0375612
0.0353727
0.0319199
0.031762
0.0303945
0.0630597
0.034313
0.0291386
0.0328535
0.0284961
0.0476401
0.086368
0.0687428
0.037373
0.0271889
0.0285745
0.0289347
0.0312548
0.0325578
0.0328553
0.0281808
0.0250426
0.0343142
0.0320529
0.0459686
0.0354769
0.0425735
0.0283503
0.038784
0.0394922
0.0381071
0.0309936
0.033543
0.0317315
0.0329147
0.0388374
0.0315483
0.0345666
0.0382978
0.028007
0.0305586
0.0438261
0.0808717
0.0350126
0.0333998
0.0337426
0.0341992
0.0494861
0.0328736
0.0281801
0.0300296
0.0268933
0.0317405
0.11248
0.0358389
0.0268679
0.038215
0.0385833
0.0335682
0.0280066
0.0404163
0.0356837
0.0300085
0.128898
0.047262
0.0535503
0.043009
0.033696
0.0271768
0.0422492
0.0289906
0.032974
0.0403014
0.0343615
0.0364032
0.036847
0.03222
0.0369974
0.0421411
0.0279454
0.0385533
0.0313213
0.0373242
0.033757
0.028393
0.03985
0.0555124
0.0648529
0.0483609
0.0405251
0.120042
0.0309138
0.0331757
0.041361
0.03342
0.0381138
0.0328086
0.0464842
0.0297727
0.0282939
0.0282287
0.0284754
0.0280398
0.0316889
0.036111
0.0470952
0.02972
0.0506716
0.0293457
0.0368365
0.0520313
0.0441735
0.0838611
0.03255
0.0430742
0.0438589
0.0321742
0.0569214
0.0314371
0.0311087
0.0373197
0.0396909
0.0497212
0.0505046
0.0501829
0.0332489
0.0285649
0.0454704
0.077947
0.0417332
0.0396512
0.0364278
0.0361729
0.0523933
0.0539576
0.078167
0.0337699
0.0507016
0.040112
0.0557557
0.0301109
0.0350688
0.0430556
0.0301978
0.0341126
0.0424904
0.0330531
0.0362156
0.0387015
0.0312033
0.0315692
0.0315314
0.0362317
0.0300705
0.0399746
0.0498839
0.0402986
0.0343882
0.0330976
0.0528627
0.0618909
0.0592148
0.0368204
0.0473664
0.0519931
0.0766961
0.0665039
0.0333324
0.0703411
0.0563685
0.0711549
0.034465
0.0505861
0.0366167
0.0302436
0.0429036
0.0699508
0.0346267
0.0625077
0.0455448
0.0637063
0.0431398
0.0403893
0.0365515
0.0298448
0.0492474
0.0512335
0.0345184
0.0503649
0.0470894
0.0588316
0.0289492
0.0282079
0.0719215
0.0629421
0.0292689
0.0327046
0.0625523
0.0468224
0.0655064
0.0672936
0.0773935
0.0512452
0.0283852
0.0294749
0.0294031
0.058624
0.0930987
0.0686564
0.0681884
0.0615772
0.0631006
0.0323698
0.0440449
0.0559353
0.0394912
0.0841728
0.0682822
0.0360808
0.0548871
0.0377162
0.0532717
0.0368923
0.0267712
0.0639109
0.0292089
0.0452049
0.0627612
0.0620168
0.0277512
0.0542675
0.0304342
0.0337944
0.0411197
0.0419279
0.094212
0.0403938
0.0471226
0.0495821
0.112171
0.0705149
0.0473166
0.0621663
0.0707127
0.114566
0.0812399
0.0415247
0.0259125
0.0950902
0.0898853
0.0797931
0.0305424
0.0561824
0.0832933
0.107086
0.0435013
0.0447356
0.0878296
0.0472964
0.0420518
0.0996579
0.0708488
0.0601178
0.0376889
0.0447787
0.0440589
0.0609916
0.0410131
0.113277
0.0385085
0.0558331
0.0628385
0.0513453
0.0390719
0.0432903
0.0549749
0.0769835
0.0302245
0.0281887
0.045483
0.062301
0.0351135
0.104771
0.0502207
0.0434308
0.0492738
0.0569125
0.0378404
0.106697
0.0901986
0.0822601
0.0535672
0.0585481
0.102889
0.0585119
0.126903
0.0373539
0.0635789
0.0388985
0.075206
0.0872929
0.0519918
0.103842
0.0517162
0.0776785
0.0404577
0.0506526
0.0393401
0.0908139
0.10455
0.0279012
0.0484355
0.0826924
0.0331641
0.0404933
0.0548516
0.06584
0.040157
0.0659087
0.0432609
0.0657262
0.0544386
0.0408055
0.0393382
0.0445275
0.0645474
0.0783856
0.0794666
0.0590809
0.0784656
0.100664
0.0344232
0.0364116
0.0632169
0.0627858
0.0492235
0.123614
0.0852261
0.029592
0.0629184
0.0669264
0.0527829
0.0344422
0.063475
0.156319
0.0356611
0.0444005
0.0457124
0.0415835
0.0959829
0.0434787
0.0444883
0.175266
0.0397452
0.0500054
0.078404
0.0508679
0.148131
0.0537066
0.0423736
0.0387744
0.044307
0.0409536
0.0669181
0.0451299
0.0699883
0.0696615
0.11345
0.0453622
0.0347536
0.0372344
0.0471356
0.084258
0.0669878
0.039264
0.0553646
0.0619216
0.037186
0.0378591
0.0473244
0.0419327
0.185329
0.0429275
0.149909
0.123226
0.0659726
0.0741
0.04629
0.054018
0.218723
0.189513
0.0366955
0.0347698
0.0382833
0.0602012
0.0551724
0.04406
0.0696454
0.0892731
0.0715168
0.0361093
0.0477495
0.0356849
0.10819
0.0398834
0.133705
0.106595
0.108788
0.0557198
0.0312649
0.0344376
0.0460665
0.0593974
0.158235
0.0497619
0.141432
0.0292675
0.0440143
0.0497242
0.142835
0.0507918
0.0431895
0.113864
0.0564358
0.142083
0.0563583
0.0649407
0.0450047
0.192545
0.133693
0.118846
0.0339537
0.055539
0.237359
0.127284
0.0831578
0.035007
0.0654153
0.0602952
0.0771486
0.0758073
0.162484
0.196592
0.0558016
0.219208
0.0900152
0.152047
0.072395
0.160156
0.0684735
0.152935
0.0872978
0.0626776
0.0389986
0.0781521
0.110913
0.18439
0.0343316
0.231854
0.113639
0.272574
0.132887
0.14305
0.126873
0.11475
0.0963611
0.0990342
0.081127
0.201595
0.131387
0.090426
0.095546
0.206705
0.0368764
0.0823515
0.117231
0.215574
0.0715834
0.0473213
0.0758986
0.0997125
0.0603352
0.0793751
0.0555887
0.10149
0.0885611
0.0829813
0.138891
0.0340685
0.131565
0.0740697
0.0796712
0.151019
0.219782
0.0629158
0.293392
0.063377
0.195919
0.122197
0.0415479
0.0623883
0.0939418
0.120473
0.0732661
0.0950584
0.0615728
0.102747
0.297545
0.123493
0.0347696
0.189362
0.221889
0.0906669
0.0957339
0.342599
0.0746504
0.152459
0.089601
0.0770217
0.117532
0.316454
0.0681751
0.102423
0.153402
0.0926703
0.0360724
0.0829371
0.181666
0.0608082
0.0981684
0.0969293
0.0839298
0.138003
0.0874296
0.138305
0.0604374
0.0786303
0.0394222
0.168907
0.0810578
0.0867324
0.0430854
0.0635597
0.136464
0.0952265
0.208418
0.114573
0.122966
0.172497
0.262243
0.0403586
0.0910469
0.0605656
0.151366
0.093711
0.0472403
0.246179
0.219569
0.0761148
0.069137
0.209292
0.0641556
0.145344
0.175723
0.125836
0.0751471
0.0764954
0.115151
0.0800123
0.0910589
0.0856653
0.0549702
0.07018
0.0558332
0.0535887
0.0359871
0.0918283
0.0832104
0.093328
0.0457501
0.0733614
0.0443241
0.148203
0.138437
0.0751347
0.0649329
0.0666909
0.0403546
0.0652712
0.0658274
0.0558009
0.104224
0.159227
0.197065
0.119753
0.0602417
0.0742025
0.0962161
0.139962
0.11028
0.0976248
0.108248
0.1089
0.0597209
0.0521528
0.0326504
