# vtk DataFile Version 1.0
Unstructured Grid Example
ASCII

DATASET UNSTRUCTURED_GRID
POINTS 913 float
284 89 0
260 65 0
68 196 0
55 249 0
212 298 0
233 407 0
76 482 0
384 355 0
351 513 0
361 323 0
441 207 0
512 103 0
473 9 0
344 62 0
99 6 0
9 1 0
113 54 0
292 2 0
302 51 0
243 87 0
263 81 0
221 67 0
118 86 0
84 106 0
83 123 0
63 455 0
1 458 0
12 482 0
64 476 0
273 323 0
224 369 0
255 513 0
259 313 0
265 135 0
187 111 0
303 260 0
310 188 0
317 394 0
306 405 0
312 513 0
337 255 0
396 399 0
375 254 0
392 248 0
391 233 0
440 234 0
353 95 0
350 171 0
340 94 0
320 163 0
337 120 0
470 53 0
303 11 0
348 86 0
492 78 0
494 54 0
507 56 0
89 19 0
16 28 0
121 43 0
126 63 0
132 52 0
190 65 0
144 52 0
174 51 0
168 13 0
147 36 0
239 16 0
234 1 0
257 9 0
261 22 0
297 20 0
260 37 0
297 60 0
284 57 0
232 40 0
228 27 0
219 39 0
212 85 0
187 76 0
215 101 0
247 110 0
259 101 0
265 122 0
281 115 0
235 125 0
231 115 0
194 125 0
169 119 0
151 112 0
185 100 0
147 66 0
176 80 0
19 83 0
92 71 0
0 97 0
40 103 0
116 104 0
41 123 0
27 148 0
0 212 0
118 189 0
178 181 0
207 189 0
211 352 0
202 364 0
184 411 0
0 322 0
0 282 0
0 417 0
0 435 0
7 448 0
30 474 0
44 475 0
165 506 0
91 512 0
109 500 0
198 494 0
71 438 0
52 423 0
254 392 0
247 316 0
234 394 0
236 448 0
225 462 0
284 445 0
267 494 0
290 455 0
292 416 0
284 404 0
294 347 0
295 306 0
284 283 0
283 297 0
274 277 0
271 312 0
228 135 0
217 274 0
263 250 0
286 159 0
289 246 0
287 272 0
340 245 0
305 249 0
342 280 0
357 248 0
359 279 0
355 296 0
351 286 0
325 292 0
315 280 0
297 281 0
308 366 0
318 360 0
320 413 0
309 415 0
323 486 0
326 402 0
353 413 0
340 446 0
332 392 0
344 327 0
353 309 0
372 361 0
396 329 0
396 362 0
372 384 0
359 398 0
399 426 0
512 465 0
497 497 0
490 362 0
450 356 0
397 342 0
485 291 0
512 289 0
432 325 0
430 280 0
394 304 0
430 229 0
405 243 0
425 251 0
447 265 0
468 265 0
501 241 0
484 226 0
499 227 0
473 220 0
512 186 0
464 144 0
383 164 0
368 135 0
395 183 0
410 218 0
385 222 0
345 192 0
336 197 0
329 216 0
301 223 0
320 208 0
353 156 0
330 140 0
355 122 0
357 142 0
367 163 0
368 181 0
337 72 0
323 86 0
320 115 0
313 90 0
305 117 0
340 9 0
310 60 0
320 19 0
349 1 0
371 71 0
396 25 0
431 18 0
409 7 0
437 63 0
436 109 0
413 121 0
485 47 0
465 65 0
467 77 0
462 45 0
449 27 0
456 17 0
0 9 0
33 1 0
52 1 0
65 1 0
80 5 0
72 19 0
87 32 0
51 28 0
34 20 0
0 25 0
26 52 0
0 51 0
55 55 0
0 67 0
15 69 0
82 53 0
71 64 0
102 65 0
98 47 0
76 41 0
97 36 0
103 26 0
122 32 0
131 38 0
110 42 0
117 68 0
164 58 0
137 61 0
155 49 0
158 38 0
161 23 0
147 18 0
137 21 0
118 21 0
105 15 0
117 10 0
123 1 0
111 1 0
132 10 0
141 2 0
161 5 0
151 8 0
182 8 0
174 1 0
189 20 0
174 22 0
180 31 0
213 30 0
205 18 0
217 16 0
207 1 0
195 9 0
244 5 0
223 2 0
266 2 0
277 5 0
286 12 0
272 27 0
286 24 0
271 15 0
249 21 0
241 28 0
228 15 0
247 44 0
216 50 0
251 32 0
270 42 0
284 40 0
259 54 0
272 57 0
246 64 0
238 54 0
234 68 0
229 59 0
210 61 0
200 57 0
198 43 0
197 31 0
208 39 0
186 41 0
168 33 0
191 51 0
182 58 0
179 69 0
168 68 0
183 89 0
198 76 0
195 90 0
206 95 0
198 102 0
224 106 0
216 115 0
228 93 0
222 80 0
212 73 0
249 78 0
233 82 0
276 74 0
287 70 0
291 81 0
271 101 0
273 90 0
289 102 0
264 111 0
253 92 0
237 101 0
252 140 0
252 123 0
274 130 0
284 125 0
287 142 0
275 149 0
288 172 0
290 170 0
269 171 0
263 147 0
256 164 0
245 152 0
233 169 0
220 152 0
241 138 0
221 126 0
207 127 0
203 116 0
213 138 0
193 145 0
195 162 0
215 167 0
180 129 0
166 153 0
158 137 0
148 176 0
142 141 0
138 101 0
130 115 0
140 125 0
164 109 0
176 110 0
164 98 0
175 98 0
156 87 0
166 84 0
158 73 0
147 80 0
138 72 0
124 77 0
135 83 0
149 95 0
127 97 0
63 97 0
103 97 0
89 85 0
102 77 0
76 80 0
30 77 0
43 70 0
0 82 0
59 82 0
9 89 0
40 85 0
0 112 0
18 116 0
25 100 0
102 116 0
64 117 0
117 127 0
124 151 0
92 146 0
60 155 0
0 164 0
0 142 0
0 247 0
24 178 0
63 310 0
0 361 0
28 363 0
90 357 0
152 362 0
159 329 0
113 289 0
126 230 0
181 225 0
173 292 0
189 256 0
190 312 0
210 233 0
211 380 0
212 337 0
209 317 0
189 333 0
176 374 0
174 351 0
136 388 0
124 416 0
151 417 0
188 391 0
204 402 0
173 459 0
185 435 0
142 443 0
124 459 0
104 434 0
81 461 0
102 460 0
48 448 0
50 387 0
86 404 0
26 417 0
0 395 0
14 435 0
32 440 0
35 461 0
18 459 0
0 483 0
8 469 0
19 473 0
53 482 0
54 468 0
53 493 0
65 493 0
32 486 0
22 490 0
10 493 0
21 501 0
0 498 0
11 508 0
0 512 0
21 513 0
34 513 0
54 513 0
44 507 0
61 503 0
41 496 0
32 502 0
77 501 0
120 506 0
68 512 0
105 513 0
130 512 0
142 513 0
211 513 0
186 513 0
151 506 0
180 499 0
136 498 0
164 491 0
149 493 0
117 491 0
86 494 0
98 498 0
111 478 0
91 478 0
130 485 0
151 473 0
179 481 0
205 474 0
228 385 0
221 395 0
240 383 0
242 370 0
250 380 0
254 413 0
245 399 0
243 412 0
216 418 0
237 421 0
223 430 0
236 434 0
213 443 0
229 513 0
222 494 0
256 465 0
246 487 0
241 467 0
252 450 0
249 438 0
246 427 0
257 430 0
263 440 0
273 446 0
269 469 0
264 453 0
284 469 0
278 513 0
288 491 0
277 457 0
292 438 0
275 430 0
278 419 0
287 428 0
270 412 0
267 422 0
259 403 0
268 384 0
262 373 0
274 394 0
278 382 0
287 390 0
291 377 0
286 360 0
275 368 0
276 355 0
283 337 0
284 325 0
272 339 0
260 336 0
265 349 0
254 354 0
263 361 0
252 368 0
251 343 0
242 349 0
223 358 0
235 361 0
231 329 0
230 341 0
227 317 0
241 325 0
242 336 0
253 328 0
253 290 0
245 300 0
239 273 0
230 296 0
236 309 0
231 201 0
227 255 0
242 240 0
248 217 0
252 262 0
252 192 0
268 226 0
268 206 0
260 277 0
275 290 0
263 303 0
291 262 0
281 308 0
278 262 0
287 232 0
286 207 0
281 187 0
306 236 0
322 227 0
321 238 0
316 252 0
314 263 0
338 270 0
327 267 0
327 251 0
337 235 0
346 226 0
351 235 0
359 214 0
362 224 0
375 227 0
370 214 0
362 262 0
367 272 0
367 246 0
361 237 0
351 272 0
349 260 0
332 284 0
342 291 0
364 302 0
366 288 0
375 301 0
369 313 0
367 334 0
353 334 0
339 317 0
341 303 0
326 323 0
320 334 0
319 311 0
327 302 0
311 298 0
295 295 0
306 289 0
306 273 0
308 311 0
295 321 0
308 323 0
297 335 0
297 361 0
307 354 0
307 341 0
325 350 0
330 376 0
319 372 0
314 384 0
303 379 0
304 393 0
301 423 0
295 401 0
301 447 0
308 466 0
295 513 0
322 463 0
330 513 0
315 450 0
326 443 0
316 427 0
309 438 0
339 402 0
346 393 0
331 420 0
330 432 0
344 493 0
371 492 0
371 513 0
346 468 0
359 449 0
370 431 0
351 431 0
362 374 0
354 383 0
350 365 0
344 376 0
332 365 0
341 350 0
331 335 0
342 339 0
356 346 0
362 357 0
371 345 0
381 317 0
385 294 0
407 302 0
420 303 0
420 315 0
412 324 0
422 335 0
401 319 0
387 335 0
377 329 0
376 401 0
385 374 0
393 452 0
400 486 0
393 513 0
425 400 0
425 429 0
430 513 0
414 379 0
419 350 0
409 336 0
472 434 0
463 397 0
444 461 0
451 493 0
467 513 0
511 513 0
494 513 0
477 493 0
512 488 0
512 428 0
481 467 0
512 356 0
512 381 0
512 335 0
472 328 0
451 327 0
438 312 0
436 299 0
447 294 0
457 305 0
512 309 0
493 311 0
454 282 0
441 284 0
467 279 0
512 272 0
494 268 0
417 258 0
435 256 0
422 267 0
433 270 0
422 288 0
410 278 0
409 290 0
398 290 0
376 284 0
390 283 0
387 272 0
377 269 0
384 261 0
395 260 0
399 272 0
406 258 0
453 253 0
445 243 0
431 241 0
377 238 0
414 248 0
406 230 0
396 224 0
416 237 0
420 224 0
432 216 0
445 219 0
462 214 0
461 226 0
472 232 0
464 245 0
457 236 0
477 255 0
512 256 0
489 246 0
476 243 0
512 233 0
498 214 0
512 213 0
509 201 0
496 196 0
471 201 0
486 209 0
473 163 0
458 178 0
488 181 0
496 159 0
512 158 0
512 142 0
499 133 0
510 125 0
483 116 0
498 118 0
482 100 0
468 96 0
468 114 0
461 127 0
477 128 0
483 147 0
439 146 0
429 129 0
450 119 0
451 106 0
415 107 0
395 116 0
400 103 0
390 97 0
414 139 0
397 143 0
382 150 0
399 167 0
413 182 0
425 162 0
433 192 0
453 159 0
413 204 0
452 197 0
400 200 0
399 212 0
382 210 0
387 199 0
376 195 0
365 202 0
357 194 0
353 184 0
369 148 0
342 162 0
346 148 0
339 176 0
352 205 0
342 210 0
333 185 0
320 182 0
318 196 0
294 182 0
304 200 0
305 176 0
301 165 0
312 153 0
324 149 0
331 157 0
331 168 0
315 125 0
322 133 0
308 142 0
301 131 0
299 147 0
297 109 0
294 122 0
302 98 0
308 107 0
320 101 0
327 123 0
330 98 0
347 105 0
337 108 0
339 135 0
349 133 0
368 117 0
380 136 0
380 118 0
357 110 0
367 105 0
379 104 0
382 85 0
395 85 0
386 71 0
402 58 0
379 57 0
355 58 0
359 70 0
348 74 0
359 86 0
367 94 0
320 73 0
337 84 0
311 78 0
301 86 0
300 74 0
321 57 0
292 48 0
314 47 0
329 65 0
332 51 0
346 50 0
335 41 0
324 34 0
315 28 0
300 31 0
306 40 0
308 20 0
307 1 0
316 6 0
327 1 0
328 12 0
335 20 0
361 18 0
367 1 0
346 24 0
360 34 0
345 35 0
390 43 0
369 46 0
378 32 0
380 16 0
395 3 0
380 1 0
425 6 0
417 16 0
438 7 0
442 17 0
449 9 0
438 27 0
449 38 0
430 40 0
419 27 0
407 34 0
406 76 0
418 41 0
424 78 0
424 92 0
409 95 0
438 79 0
437 92 0
452 64 0
426 53 0
452 51 0
441 49 0
481 60 0
475 43 0
479 72 0
479 86 0
453 88 0
512 86 0
496 94 0
512 67 0
512 45 0
483 36 0
495 38 0
506 34 0
512 24 0
490 27 0
472 26 0
463 33 0
481 17 0
460 5 0
485 7 0
495 1 0
502 17 0
512 10 0

CELLS 1748 6992
3 236 15 229
3 53 48 838
3 872 870 908
3 300 298 323
3 356 34 87
3 2 101 408
3 450 452 441
3 436 433 435
3 562 132 133
3 523 518 520
3 666 163 7
3 648 618 153
3 621 37 38
3 743 742 740
3 610 612 531
3 549 32 121
3 717 716 718
3 299 291 298
3 180 43 44
3 823 767 822
3 910 911 909
3 894 224 893
3 834 835 53
3 294 74 297
3 233 230 231
3 296 72 294
3 230 235 236
3 417 419 406
3 378 379 380
3 303 304 292
3 855 213 853
3 851 286 71
3 818 814 816
3 324 321 300
3 81 82 331
3 323 20 332
3 1 297 325
3 364 365 88
3 251 63 61
3 315 316 317
3 256 64 254
3 392 377 23
3 236 58 15
3 392 96 377
3 378 22 97
3 440 437 438
3 390 93 387
3 447 28 6
3 440 439 112
3 492 426 106
3 447 446 444
3 25 430 28
3 525 129 523
3 143 35 140
3 414 105 30
3 544 415 416
3 426 427 422
3 29 533 547
3 356 353 357
3 394 360 359
3 329 20 325
3 16 59 61
3 410 137 4
3 553 103 346
3 135 29 32
3 820 790 819
3 722 43 42
3 622 514 517
3 523 524 525
3 154 38 37
3 488 120 486
3 503 123 495
3 570 571 572
3 591 575 144
3 633 635 157
3 142 145 590
3 589 144 575
3 724 180 44
3 593 596 162
3 722 588 583
3 731 734 729
3 737 185 186
3 663 7 654
3 859 214 860
3 783 784 192
3 791 789 47
3 762 763 764
3 816 814 207
3 839 209 840
[...]
CELL_DATA 1748
COLOR_SCALARS ColorSpace 1
0.252288
0.181699
0.271895
0.179085
0.424837
0.543791
0.464052
0.487582
0.415686
0.466667
0.439216
0.439216
0.321569
0.522876
0.376471
0.388235
0.469281
0.198693
0.467974
0.55817
0.240523
0.29281
0.236601
0.203922
0.266667
0.206536
0.267974
0.511111
0.530719
0.244444
0.40915
0.214379
0.207843
0.185621
0.379085
0.166013
0.166013
0.369935
0.435294
0.467974
0.428758
0.545098
0.257516
0.538562
0.529412
0.475817
0.490196
0.475817
0.473203
0.498039
0.470588
0.478431
0.426144
0.554248
0.50719
0.518954
0.49281
0.407843
0.555556
0.554248
0.194771
0.431373
0.528105
0.552941
0.35817
0.192157
0.43268
0.52549
0.424837
0.402614
0.410458
0.482353
0.169935
0.469281
0.218301
0.537255
0.47451
0.415686
0.419608
0.526797
0.373856
0.484967
0.386928
0.288889
0.560784
0.300654
0.555556
0.186928
0.188235
0.393464
0.32549
0.207843
0.173856
0.284967
0.52549
0.269281
0.213072
0.296732
0.181699
0.299346
0.533333
0.326797
0.262745
0.24183
0.262745
0.247059
0.423529
0.547712
0.551634
0.482353
0.360784
0.375163
0.245752
0.415686
0.362092
0.215686
0.562092
0.43268
0.20915
0.186928
0.284967
0.403922
0.172549
0.436601
0.423529
0.179085
0.180392
0.20915
0.23268
0.189542
0.192157
0.210458
0.202614
0.260131
0.203922
0.193464
0.279739
0.16732
0.2
0.192157
0.237908
0.192157
0.228758
0.16732
0.295425
0.20915
0.248366
0.394771
0.278431
0.369935
0.471895
0.40915
0.254902
0.341176
0.180392
0.326797
0.335948
0.31634
0.179085
0.154248
0.364706
0.464052
0.338562
0.424837
0.347712
0.346405
0.458824
0.423529
0.554248
0.466667
0.279739
0.422222
0.416993
0.227451
0.267974
0.20915
0.379085
0.541176
0.273203
0.278431
0.490196
0.317647
0.554248
0.550327
0.552941
0.546405
0.537255
0.522876
0.551634
0.541176
0.550327
0.388235
0.369935
0.484967
0.505882
0.405229
0.482353
0.509804
0.487582
0.508497
0.517647
0.478431
0.471895
0.477124
0.482353
0.470588
0.47451
0.471895
0.47451
0.475817
0.473203
0.471895
0.486275
0.479739
0.496732
0.487582
0.475817
0.505882
0.482353
0.34902
0.375163
0.454902
0.528105
0.443137
0.499346
0.496732
0.496732
0.479739
0.48366
0.487582
0.545098
0.48366
0.478431
0.479739
0.487582
0.513725
0.462745
0.545098
0.224837
0.534641
0.424837
0.511111
0.511111
0.475817
0.426144
0.491503
0.351634
0.467974
0.466667
0.397386
0.384314
0.532026
0.317647
0.520261
0.539869
0.405229
0.247059
0.554248
0.179085
0.40915
0.547712
0.377778
0.503268
0.498039
0.435294
0.392157
0.371242
0.537255
0.436601
0.576471
0.504575
0.356863
0.470588
0.457516
0.543791
0.464052
0.464052
0.439216
0.413072
0.458824
0.440523
0.401307
0.456209
0.545098
0.542484
0.328105
0.23268
0.487582
0.207843
0.54902
0.512418
0.48366
0.607843
0.222222
0.304575
0.498039
0.346405
0.498039
0.490196
0.471895
0.333333
0.482353
0.445752
0.494118
0.366013
0.303268
0.513725
0.481046
0.436601
0.532026
0.440523
0.505882
0.298039
0.505882
0.304575
0.4
0.48366
0.495425
0.509804
0.486275
0.517647
0.495425
0.524183
0.501961
0.401307
0.484967
0.529412
0.520261
0.520261
0.521569
0.462745
0.266667
0.45098
0.333333
0.362092
0.380392
0.402614
0.520261
0.47451
0.397386
0.498039
0.356863
0.494118
0.389542
0.522876
0.538562
0.524183
0.500654
0.35817
0.526797
0.484967
0.462745
0.354248
0.533333
0.524183
0.397386
0.437908
0.556863
0.321569
0.308497
0.362092
0.551634
0.36732
0.552941
0.500654
0.530719
0.371242
0.413072
0.427451
0.537255
0.40915
0.422222
0.541176
0.330719
0.552941
0.436601
0.213072
0.198693
0.201307
0.233987
0.2
0.227451
0.418301
0.184314
0.555556
0.282353
0.43268
0.539869
0.171242
0.248366
0.205229
0.196078
0.184314
0.201307
0.177778
0.197386
0.185621
0.284967
0.31634
0.219608
0.275817
0.29281
0.343791
0.300654
0.360784
0.291503
0.518954
0.379085
0.318954
0.273203
0.456209
0.342484
0.267974
0.31634
0.440523
0.43268
0.303268
0.547712
0.245752
0.317647
0.269281
0.329412
0.333333
0.328105
0.294118
0.369935
0.36732
0.343791
0.339869
0.228758
0.249673
0.247059
0.288889
0.219608
0.235294
0.288889
0.299346
0.27451
0.267974
0.181699
0.308497
0.315033
0.269281
0.254902
0.277124
0.265359
0.27451
0.294118
0.312418
0.281046
0.335948
0.555556
0.303268
0.335948
0.396078
0.304575
0.388235
0.326797
0.511111
0.335948
0.253595
0.296732
0.299346
0.291503
0.288889
0.223529
0.326797
0.481046
0.317647
0.407843
0.197386
0.420915
0.448366
0.277124
0.401307
0.273203
0.384314
0.44183
0.396078
0.464052
0.484967
0.424837
0.394771
0.422222
0.342484
0.444444
0.215686
0.388235
0.444444
0.495425
0.341176
0.471895
0.354248
0.265359
0.2
0.291503
0.501961
0.311111
0.337255
0.47451
0.332026
0.290196
0.294118
0.228758
0.261438
0.360784
0.227451
0.27451
0.196078
0.240523
0.203922
0.215686
0.352941
0.300654
0.44183
0.267974
0.291503
0.155556
0.281046
0.265359
0.202614
0.154248
0.146405
0.2
0.203922
0.197386
0.181699
0.14902
0.141176
0.222222
0.202614
0.211765
0.181699
0.213072
0.2
0.222222
0.257516
0.16732
0.207843
0.185621
0.186928
0.198693
0.213072
0.206536
0.198693
0.177778
0.152941
0.196078
0.201307
0.239216
0.287582
0.220915
0.189542
0.197386
0.168627
0.210458
0.184314
0.162092
0.216993
0.163399
0.186928
0.168627
0.197386
0.177778
0.235294
0.186928
0.179085
0.181699
0.233987
0.192157
0.231373
0.258824
0.333333
0.257516
0.228758
0.230065
0.193464
0.273203
0.303268
0.227451
0.398693
0.475817
0.410458
0.210458
0.25098
0.394771
0.295425
0.291503
0.264052
0.296732
0.402614
0.328105
0.342484
0.249673
0.240523
0.360784
0.364706
0.445752
0.444444
0.402614
0.27451
0.321569
0.363399
0.439216
0.423529
0.267974
0.369935
0.184314
0.24183
0.192157
0.260131
0.19085
0.166013
0.177778
0.184314
0.227451
0.202614
0.214379
0.185621
0.186928
0.193464
0.211765
0.322876
0.206536
0.206536
0.189542
0.205229
0.300654
0.296732
0.169935
0.172549
0.25098
0.452288
0.411765
0.352941
0.388235
0.256209
0.326797
0.341176
0.171242
0.288889
0.267974
0.290196
0.393464
0.305882
0.543791
0.360784
0.49281
0.420915
0.547712
0.499346
0.469281
0.40915
0.547712
0.55817
0.559477
0.494118
0.556863
0.554248
0.556863
0.435294
0.528105
0.462745
0.431373
0.339869
0.559477
0.445752
0.530719
0.396078
0.563399
0.556863
0.559477
0.55817
0.556863
0.552941
0.554248
0.554248
0.55817
0.555556
0.552941
0.569935
0.576471
0.552941
0.551634
0.552941
0.551634
0.555556
0.426144
0.322876
0.566013
0.568627
0.554248
0.564706
0.488889
0.45098
0.311111
0.266667
0.419608
0.369935
0.196078
0.262745
0.475817
0.402614
0.360784
0.303268
0.260131
0.372549
0.452288
0.324183
0.381699
0.48366
0.256209
0.15817
0.49281
0.31634
0.420915
0.534641
0.571242
0.542484
0.428758
0.482353
0.54902
0.394771
0.535948
0.517647
0.52549
0.505882
0.488889
0.423529
0.445752
0.401307
0.405229
0.338562
0.339869
0.511111
0.384314
0.440523
0.440523
0.488889
0.513725
0.490196
0.550327
0.509804
0.539869
0.51634
0.556863
0.554248
0.552941
0.547712
0.554248
0.551634
0.547712
0.554248
0.54902
0.552941
0.546405
0.550327
0.547712
0.535948
0.545098
0.530719
0.522876
0.539869
0.545098
0.512418
0.499346
0.503268
0.498039
0.504575
0.503268
0.491503
0.512418
0.498039
0.518954
0.505882
0.539869
0.54902
0.533333
0.546405
0.541176
0.546405
0.524183
0.530719
0.532026
0.534641
0.521569
0.515033
0.547712
0.545098
0.496732
0.501961
0.511111
0.521569
0.498039
0.51634
0.517647
0.515033
0.505882
0.503268
0.508497
0.509804
0.495425
0.503268
0.499346
0.473203
0.49281
0.496732
0.501961
0.498039
0.500654
0.491503
0.490196
0.471895
0.486275
0.490196
0.471895
0.479739
0.47451
0.479739
0.488889
0.491503
0.482353
0.479739
0.484967
0.484967
0.484967
0.479739
0.498039
0.488889
0.494118
0.498039
0.484967
0.487582
0.494118
0.49281
0.479739
0.479739
0.481046
0.48366
0.470588
0.479739
0.47451
0.475817
0.469281
0.470588
0.467974
0.471895
0.469281
0.470588
0.471895
0.47451
0.477124
0.477124
0.470588
0.470588
0.47451
0.466667
0.471895
0.470588
0.467974
0.469281
0.466667
0.467974
0.465359
0.469281
0.464052
0.460131
0.461438
0.457516
0.462745
0.462745
0.469281
0.469281
0.470588
0.470588
0.470588
0.464052
0.460131
0.467974
0.475817
0.467974
0.473203
0.482353
0.470588
0.467974
0.467974
0.470588
0.471895
0.471895
0.471895
0.475817
0.473203
0.475817
0.47451
0.471895
0.478431
0.477124
0.471895
0.475817
0.478431
0.473203
0.473203
0.477124
0.47451
0.47451
0.475817
0.471895
0.477124
0.471895
0.477124
0.482353
0.479739
0.479739
0.47451
0.478431
0.48366
0.481046
0.481046
0.481046
0.48366
0.481046
0.398693
0.504575
0.396078
0.501961
0.535948
0.479739
0.328105
0.410458
0.424837
0.389542
0.31634
0.496732
0.572549
0.458824
0.303268
0.419608
0.499346
0.401307
0.330719
0.420915
0.495425
0.423529
0.423529
0.495425
0.487582
0.494118
0.477124
0.482353
0.475817
0.424837
0.484967
0.488889
0.481046
0.490196
0.487582
0.488889
0.291503
0.359477
0.329412
0.343791
0.258824
0.335948
0.437908
0.397386
0.240523
0.397386
0.213072
0.501961
0.48366
0.494118
0.402614
0.410458
0.48366
0.479739
0.488889
0.481046
0.305882
0.505882
0.48366
0.339869
0.230065
0.360784
0.36732
0.440523
0.347712
0.662745
0.257516
0.411765
0.249673
0.245752
0.448366
0.491503
0.464052
0.354248
0.406536
0.461438
0.452288
0.433987
0.477124
0.418301
0.478431
0.427451
0.386928
0.335948
0.383007
0.475817
0.470588
0.402614
0.394771
0.368627
0.431373
0.556863
0.406536
0.267974
0.424837
0.44183
0.318954
0.462745
0.372549
0.381699
0.411765
0.415686
0.398693
0.339869
0.308497
0.396078
0.415686
0.517647
0.487582
0.465359
0.50719
0.329412
0.396078
0.426144
0.426144
0.504575
0.447059
0.385621
0.530719
0.452288
0.426144
0.509804
0.453595
0.456209
0.491503
0.371242
0.383007
0.36732
0.4
0.524183
0.380392
0.537255
0.503268
0.407843
0.445752
0.526797
0.556863
0.541176
0.539869
0.535948
0.543791
0.539869
0.551634
0.543791
0.499346
0.537255
0.554248
0.449673
0.551634
0.526797
0.555556
0.543791
0.34902
0.376471
0.347712
0.352941
0.398693
0.482353
0.40915
0.457516
0.30719
0.32549
0.334641
0.48366
0.54902
0.430065
0.542484
0.551634
0.437908
0.554248
0.437908
0.322876
0.270588
0.28366
0.407843
0.356863
0.40915
0.614379
0.554248
0.592157
0.529412
0.538562
0.533333
0.521569
0.402614
0.342484
0.475817
0.45098
0.505882
0.542484
0.505882
0.388235
0.329412
0.398693
0.48366
0.458824
0.543791
0.333333
0.475817
0.481046
0.465359
0.460131
0.448366
0.491503
0.575163
0.554248
0.579085
0.50719
0.479739
0.469281
0.512418
0.49281
0.456209
0.424837
0.449673
0.47451
0.478431
0.479739
0.453595
0.422222
0.418301
0.162092
0.248366
0.363399
0.392157
0.328105
0.552941
0.386928
0.326797
0.435294
0.511111
0.447059
0.45098
0.498039
0.354248
0.509804
0.576471
0.486275
0.508497
0.454902
0.517647
0.546405
0.448366
0.418301
0.394771
0.470588
0.471895
0.532026
0.424837
0.366013
0.470588
0.309804
0.49281
0.448366
0.330719
0.415686
0.333333
0.475817
0.301961
0.517647
0.300654
0.486275
0.543791
0.384314
0.279739
0.345098
0.440523
0.338562
0.470588
0.386928
0.462745
0.454902
0.4
0.413072
0.541176
0.295425
0.521569
0.426144
0.407843
0.249673
0.346405
0.490196
0.482353
0.494118
0.491503
0.482353
0.473203
0.532026
0.436601
0.24183
0.571242
0.447059
0.401307
0.430065
0.218301
0.320261
0.40915
0.397386
0.311111
0.326797
0.410458
0.415686
0.491503
0.481046
0.48366
0.494118
0.481046
0.487582
0.487582
0.498039
0.495425
0.503268
0.496732
0.499346
0.498039
0.351634
0.44183
0.301961
0.355556
0.45098
0.322876
0.377778
0.330719
0.369935
0.55817
0.433987
0.50719
0.586928
0.54902
0.518954
0.445752
0.335948
0.32549
0.385621
0.291503
0.386928
0.257516
0.273203
0.270588
0.4
0.329412
0.447059
0.560784
0.543791
0.488889
0.607843
0.244444
0.539869
0.515033
0.513725
0.51634
0.337255
0.34902
0.239216
0.347712
0.373856
0.355556
0.500654
0.500654
0.515033
0.509804
0.494118
0.498039
0.491503
0.495425
0.482353
0.512418
0.482353
0.499346
0.481046
0.482353
0.511111
0.50719
0.518954
0.515033
0.521569
0.373856
0.501961
0.499346
0.509804
0.509804
0.48366
0.488889
0.482353
0.478431
0.478431
0.482353
0.478431
0.475817
0.487582
0.49281
0.478431
0.490196
0.49281
0.486275
0.513725
0.503268
0.52549
0.526797
0.518954
0.54902
0.521569
0.545098
0.522876
0.439216
0.407843
0.299346
0.501961
0.524183
0.505882
0.528105
0.530719
0.52549
0.420915
0.410458
0.40915
0.210458
0.530719
0.388235
0.522876
0.286275
0.482353
0.437908
0.528105
0.330719
0.322876
0.301961
0.470588
0.338562
0.256209
0.383007
0.575163
0.264052
0.318954
0.444444
0.620915
0.447059
0.375163
0.454902
0.393464
0.401307
0.437908
0.457516
0.454902
0.458824
0.456209
0.466667
0.433987
0.362092
0.478431
0.301961
0.457516
0.423529
0.457516
0.275817
0.335948
0.23268
0.426144
0.315033
0.329412
0.515033
0.452288
0.407843
0.488889
0.504575
0.350327
0.393464
0.552941
0.517647
0.347712
0.366013
0.552941
0.380392
0.454902
0.30719
0.52549
0.533333
0.521569
0.414379
0.366013
0.488889
0.334641
0.168627
0.318954
0.333333
0.369935
0.150327
0.364706
0.526797
0.490196
0.508497
0.368627
0.267974
0.530719
0.369935
0.537255
0.533333
0.413072
0.541176
0.405229
0.530719
0.552941
0.535948
0.411765
0.376471
0.551634
0.461438
0.555556
0.546405
0.521569
0.530719
0.511111
0.543791
0.541176
0.524183
0.541176
0.309804
0.517647
0.495425
0.508497
0.501961
0.439216
0.495425
0.298039
0.393464
0.437908
0.43268
0.498039
0.499346
0.484967
0.511111
0.534641
0.499346
0.535948
0.501961
0.552941
0.559477
0.552941
0.552941
0.512418
0.539869
0.430065
0.533333
0.551634
0.396078
0.518954
0.188235
0.465359
0.504575
0.447059
0.505882
0.555556
0.309804
0.55817
0.568627
0.55817
0.539869
0.554248
0.555556
0.503268
0.554248
0.552941
0.54902
0.552941
0.552941
0.550327
0.521569
0.552941
0.499346
0.551634
0.552941
0.477124
0.312418
0.52549
0.447059
0.424837
0.423529
0.55817
0.324183
0.556863
0.454902
0.415686
0.419608
0.433987
0.424837
0.430065
0.4
0.321569
0.54902
0.386928
0.201307
0.185621
0.213072
0.401307
0.303268
0.271895
0.533333
0.397386
0.419608
0.444444
0.512418
0.418301
0.433987
0.470588
0.498039
0.465359
0.495425
0.491503
0.456209
0.457516
0.416993
0.317647
0.369935
0.375163
0.329412
0.430065
0.341176
0.402614
0.309804
0.379085
0.364706
0.192157
0.444444
0.216993
0.218301
0.213072
0.295425
0.194771
0.322876
0.211765
0.392157
0.171242
0.151634
0.183007
0.197386
0.171242
0.192157
0.156863
0.16732
0.172549
0.206536
0.23268
0.197386
0.171242
0.219608
0.183007
0.193464
0.192157
0.213072
0.205229
0.171242
0.194771
0.203922
0.236601
0.529412
0.556863
0.560784
0.431373
0.286275
0.252288
0.248366
0.265359
0.257516
0.500654
0.414379
0.368627
0.428758
0.31634
0.469281
0.296732
0.298039
0.287582
0.32549
0.286275
0.30719
0.243137
0.284967
0.256209
0.233987
0.247059
0.216993
0.305882
0.235294
0.275817
0.376471
0.179085
0.227451
0.188235
0.213072
0.171242
0.181699
0.19085
0.159477
0.172549
0.194771
0.226144
0.317647
0.205229
0.175163
0.233987
0.206536
0.312418
0.321569
0.333333
0.28366
0.20915
0.183007
0.193464
0.270588
0.19085
0.273203
0.295425
0.222222
0.185621
0.341176
0.20915
0.281046
0.345098
0.364706
0.300654
0.23268
0.265359
0.261438
0.210458
0.185621
0.231373
0.231373
0.247059
0.296732
0.329412
0.414379
0.192157
0.231373
0.29281
0.271895
0.282353
0.326797
0.30719
0.30719
0.32549
0.299346
0.315033
0.301961
0.294118
0.284967
0.326797
0.321569
0.287582
0.363399
0.359477
0.308497
0.277124
0.332026
0.322876
0.30719
0.261438
0.291503
0.275817
0.318954
0.312418
0.282353
0.311111
0.329412
0.375163
0.352941
0.366013
0.31634
0.359477
0.342484
0.284967
0.31634
0.393464
0.318954
0.500654
0.478431
0.461438
0.415686
0.504575
0.330719
0.433987
0.318954
0.279739
0.405229
0.317647
0.309804
0.266667
0.28366
0.236601
0.347712
0.337255
0.219608
0.318954
0.304575
0.337255
0.240523
0.281046
0.334641
0.389542
0.386928
0.335948
0.333333
0.396078
0.282353
0.265359
0.288889
0.341176
0.333333
0.267974
0.239216
0.270588
0.321569
0.371242
0.290196
0.223529
0.284967
0.267974
0.376471
0.279739
0.318954
0.239216
0.192157
0.321569
0.27451
0.243137
0.243137
0.384314
0.262745
