# vtk DataFile Version 1.0
Unstructured Grid Example
ASCII

DATASET UNSTRUCTURED_GRID
POINTS 1146 float
102 91 0
512 64 0
72 20 0
247 193 0
31 183 0
74 92 0
21 167 0
245 184 0
118 233 0
159 372 0
462 306 0
263 331 0
335 256 0
323 230 0
277 220 0
397 122 0
366 167 0
123 25 0
28 120 0
100 111 0
149 109 0
168 44 0
209 104 0
235 182 0
255 186 0
280 159 0
150 184 0
144 177 0
116 175 0
2 161 0
5 197 0
91 194 0
42 202 0
110 203 0
184 255 0
113 481 0
233 322 0
233 372 0
256 513 0
294 361 0
279 298 0
295 263 0
283 209 0
241 224 0
315 359 0
309 194 0
357 259 0
309 415 0
348 437 0
318 513 0
374 365 0
397 378 0
395 345 0
362 307 0
381 256 0
435 247 0
363 203 0
493 161 0
504 159 0
484 182 0
435 162 0
380 160 0
383 180 0
428 187 0
418 30 0
301 16 0
406 29 0
447 16 0
464 125 0
479 117 0
497 89 0
86 34 0
82 1 0
31 1 0
0 52 0
66 98 0
53 101 0
134 75 0
96 99 0
140 94 0
143 73 0
139 57 0
104 2 0
90 18 0
171 1 0
169 30 0
193 24 0
209 15 0
269 16 0
213 49 0
218 96 0
242 101 0
198 70 0
183 93 0
171 58 0
147 62 0
159 65 0
163 137 0
140 103 0
168 102 0
172 126 0
225 131 0
262 132 0
237 163 0
253 146 0
269 174 0
201 189 0
186 165 0
174 163 0
186 152 0
122 167 0
104 171 0
83 157 0
126 149 0
111 128 0
105 103 0
81 110 0
39 131 0
75 102 0
14 138 0
55 139 0
74 154 0
8 152 0
78 164 0
103 196 0
81 199 0
120 201 0
129 199 0
204 199 0
132 190 0
205 226 0
211 210 0
182 220 0
174 204 0
147 217 0
66 209 0
134 208 0
0 253 0
100 228 0
45 231 0
89 297 0
45 313 0
0 506 0
26 464 0
199 341 0
153 443 0
179 309 0
203 287 0
156 235 0
181 274 0
187 238 0
229 342 0
245 326 0
212 371 0
249 376 0
225 379 0
253 436 0
264 393 0
257 408 0
271 385 0
255 384 0
264 377 0
272 329 0
253 335 0
276 307 0
279 274 0
269 274 0
268 316 0
262 305 0
222 274 0
229 246 0
244 234 0
222 193 0
215 224 0
249 214 0
270 194 0
275 203 0
280 192 0
311 249 0
305 241 0
292 235 0
327 240 0
331 224 0
339 227 0
331 334 0
337 278 0
326 284 0
324 293 0
306 311 0
290 256 0
284 265 0
293 395 0
311 340 0
311 373 0
306 406 0
297 406 0
299 495 0
283 468 0
343 409 0
330 415 0
334 398 0
336 369 0
316 350 0
338 360 0
347 363 0
362 295 0
398 276 0
408 302 0
394 314 0
387 365 0
388 397 0
481 437 0
512 489 0
512 423 0
480 375 0
424 287 0
475 285 0
460 280 0
463 267 0
486 274 0
474 269 0
426 272 0
417 275 0
395 257 0
390 270 0
401 250 0
369 238 0
421 232 0
446 252 0
469 256 0
504 254 0
511 231 0
481 205 0
510 219 0
512 203 0
465 195 0
485 147 0
488 137 0
446 162 0
415 125 0
448 133 0
414 172 0
452 198 0
429 204 0
460 210 0
360 195 0
383 220 0
364 212 0
353 205 0
330 187 0
310 171 0
281 170 0
290 167 0
286 149 0
292 157 0
342 166 0
400 151 0
353 165 0
391 134 0
424 74 0
440 68 0
433 123 0
312 123 0
296 64 0
292 108 0
354 1 0
285 27 0
354 22 0
371 1 0
404 51 0
377 42 0
427 57 0
455 34 0
441 1 0
459 47 0
465 70 0
443 112 0
462 96 0
462 112 0
473 60 0
512 108 0
503 57 0
512 40 0
480 1 0
501 11 0
512 27 0
14 18 0
0 14 0
4 1 0
16 3 0
62 1 0
93 1 0
63 51 0
86 71 0
62 76 0
51 19 0
30 41 0
19 71 0
0 29 0
27 94 0
0 77 0
12 101 0
0 101 0
16 113 0
6 114 0
68 108 0
59 111 0
49 114 0
34 107 0
86 101 0
90 84 0
40 82 0
100 76 0
109 67 0
110 83 0
119 89 0
110 111 0
116 100 0
119 109 0
130 111 0
127 96 0
135 86 0
124 58 0
134 65 0
119 77 0
127 47 0
130 33 0
113 55 0
113 41 0
111 28 0
100 43 0
96 57 0
113 14 0
100 25 0
115 1 0
125 7 0
134 19 0
135 7 0
141 27 0
160 19 0
146 18 0
149 1 0
157 33 0
141 43 0
152 44 0
187 40 0
184 64 0
165 75 0
183 13 0
170 12 0
160 1 0
185 1 0
215 33 0
204 1 0
222 1 0
231 18 0
247 37 0
251 1 0
273 1 0
268 68 0
274 44 0
244 70 0
232 76 0
226 60 0
216 70 0
197 53 0
222 83 0
203 83 0
242 82 0
253 80 0
284 81 0
265 87 0
250 94 0
260 110 0
278 99 0
247 112 0
236 93 0
205 95 0
231 104 0
179 102 0
200 113 0
191 109 0
198 102 0
193 94 0
189 83 0
178 78 0
162 86 0
151 84 0
172 90 0
159 96 0
148 98 0
159 109 0
174 112 0
153 118 0
141 117 0
132 124 0
153 128 0
143 134 0
127 135 0
214 128 0
175 137 0
197 139 0
191 125 0
181 120 0
206 120 0
165 118 0
235 128 0
219 115 0
237 117 0
246 125 0
257 121 0
267 117 0
276 123 0
273 144 0
281 138 0
272 132 0
248 137 0
238 139 0
228 144 0
216 138 0
235 152 0
225 160 0
245 156 0
261 159 0
264 149 0
272 154 0
272 164 0
282 179 0
252 164 0
250 175 0
218 169 0
231 173 0
208 162 0
179 178 0
207 178 0
191 177 0
165 174 0
199 170 0
170 150 0
206 149 0
132 158 0
152 147 0
139 149 0
163 162 0
148 167 0
138 170 0
157 178 0
89 165 0
96 176 0
112 166 0
87 175 0
77 174 0
68 172 0
85 146 0
68 162 0
60 155 0
96 144 0
98 164 0
99 153 0
117 155 0
88 134 0
117 143 0
107 141 0
102 130 0
120 125 0
103 121 0
92 117 0
66 121 0
78 120 0
86 125 0
79 132 0
74 140 0
65 133 0
63 143 0
36 140 0
47 150 0
36 154 0
46 140 0
51 124 0
40 122 0
0 129 0
9 125 0
18 124 0
29 130 0
3 139 0
20 152 0
27 141 0
14 160 0
9 168 0
27 159 0
39 162 0
59 167 0
47 165 0
52 158 0
51 177 0
60 176 0
40 176 0
33 170 0
22 178 0
10 179 0
0 173 0
57 189 0
0 185 0
40 187 0
18 191 0
48 192 0
30 200 0
62 198 0
71 199 0
75 191 0
100 185 0
83 185 0
70 183 0
109 181 0
134 181 0
125 181 0
157 189 0
167 186 0
191 188 0
214 184 0
192 201 0
214 196 0
178 194 0
169 196 0
159 202 0
145 194 0
115 189 0
183 202 0
165 210 0
184 211 0
193 210 0
201 207 0
223 207 0
195 221 0
223 216 0
203 216 0
174 214 0
174 225 0
160 225 0
157 215 0
129 225 0
142 226 0
136 217 0
109 214 0
122 213 0
150 207 0
142 203 0
89 206 0
100 205 0
54 209 0
77 210 0
0 212 0
22 220 0
85 220 0
84 234 0
68 229 0
0 231 0
108 248 0
131 245 0
145 237 0
123 265 0
128 310 0
128 350 0
78 258 0
37 261 0
0 307 0
6 274 0
1 451 0
0 360 0
0 421 0
0 472 0
21 488 0
0 492 0
8 513 0
96 513 0
49 513 0
22 513 0
66 484 0
64 441 0
129 396 0
70 379 0
202 432 0
194 367 0
187 389 0
184 487 0
179 513 0
152 513 0
222 489 0
210 513 0
213 463 0
221 439 0
206 411 0
223 366 0
211 386 0
216 311 0
224 353 0
219 342 0
211 354 0
207 324 0
157 291 0
160 337 0
166 248 0
153 263 0
170 235 0
188 227 0
203 264 0
218 240 0
203 245 0
242 347 0
234 358 0
245 358 0
252 345 0
253 354 0
255 363 0
249 391 0
256 396 0
247 400 0
241 380 0
225 394 0
241 367 0
237 397 0
244 421 0
235 408 0
225 417 0
234 427 0
237 438 0
236 449 0
238 513 0
248 456 0
248 481 0
246 444 0
250 428 0
258 425 0
253 418 0
248 409 0
263 443 0
268 422 0
267 431 0
261 454 0
271 456 0
268 466 0
281 454 0
273 485 0
281 513 0
285 446 0
276 443 0
280 434 0
279 424 0
282 379 0
285 392 0
281 414 0
279 404 0
263 402 0
273 394 0
267 412 0
269 348 0
265 366 0
263 355 0
275 369 0
276 355 0
286 355 0
286 367 0
286 333 0
276 337 0
280 321 0
285 311 0
279 285 0
273 291 0
265 288 0
258 278 0
267 265 0
269 300 0
258 314 0
263 340 0
258 323 0
244 310 0
250 318 0
252 306 0
242 297 0
239 334 0
233 307 0
228 332 0
239 265 0
228 295 0
239 284 0
248 277 0
249 288 0
255 267 0
254 297 0
255 221 0
257 254 0
255 236 0
246 245 0
234 235 0
226 229 0
231 202 0
224 184 0
232 221 0
235 193 0
237 211 0
249 203 0
240 202 0
261 206 0
267 185 0
260 194 0
268 213 0
263 215 0
267 236 0
266 247 0
277 248 0
275 259 0
281 238 0
276 230 0
268 223 0
271 211 0
286 227 0
288 247 0
297 245 0
301 231 0
302 253 0
304 264 0
291 271 0
318 272 0
306 273 0
323 263 0
311 258 0
325 254 0
312 231 0
320 245 0
335 237 0
334 247 0
344 241 0
345 233 0
352 239 0
354 247 0
348 260 0
354 278 0
355 269 0
343 267 0
342 251 0
335 265 0
328 270 0
337 288 0
333 296 0
323 305 0
344 283 0
349 295 0
352 287 0
348 308 0
350 322 0
345 330 0
339 305 0
333 325 0
338 318 0
331 310 0
322 316 0
316 325 0
314 304 0
306 298 0
315 292 0
303 289 0
314 281 0
291 285 0
299 281 0
292 295 0
293 307 0
302 320 0
291 323 0
301 331 0
291 377 0
288 345 0
300 372 0
301 341 0
302 355 0
305 364 0
306 397 0
319 400 0
311 389 0
305 381 0
295 386 0
292 419 0
288 408 0
290 431 0
300 429 0
293 440 0
297 448 0
290 457 0
298 513 0
300 467 0
304 455 0
318 470 0
312 448 0
304 441 0
315 425 0
316 435 0
301 419 0
327 406 0
321 390 0
319 412 0
326 425 0
322 450 0
327 491 0
346 466 0
337 513 0
328 440 0
336 429 0
346 420 0
346 398 0
335 388 0
345 354 0
347 383 0
349 374 0
334 378 0
329 361 0
325 381 0
321 371 0
325 352 0
322 332 0
328 342 0
337 350 0
339 338 0
352 337 0
354 347 0
372 298 0
361 323 0
373 310 0
379 320 0
383 305 0
398 302 0
385 354 0
404 337 0
390 329 0
382 339 0
373 343 0
371 333 0
363 342 0
364 374 0
357 357 0
364 364 0
357 381 0
365 391 0
366 416 0
356 490 0
369 440 0
395 506 0
371 513 0
392 425 0
378 379 0
403 362 0
369 356 0
406 466 0
437 407 0
475 469 0
456 491 0
463 513 0
422 513 0
484 513 0
503 513 0
511 504 0
498 496 0
512 357 0
512 394 0
512 458 0
432 327 0
492 321 0
460 336 0
430 349 0
416 322 0
415 346 0
406 324 0
420 303 0
405 313 0
423 314 0
430 306 0
512 314 0
433 297 0
444 313 0
455 272 0
512 287 0
492 296 0
495 264 0
512 263 0
480 261 0
434 276 0
435 262 0
448 267 0
449 279 0
440 283 0
444 294 0
453 289 0
399 292 0
410 281 0
410 292 0
391 288 0
383 294 0
374 284 0
362 285 0
370 274 0
363 265 0
372 261 0
381 266 0
385 278 0
418 265 0
406 268 0
405 258 0
422 247 0
413 254 0
390 248 0
379 247 0
364 254 0
364 245 0
360 237 0
382 238 0
398 241 0
409 246 0
409 233 0
416 241 0
443 232 0
460 231 0
430 234 0
457 240 0
424 258 0
443 243 0
456 259 0
496 244 0
461 251 0
480 251 0
469 244 0
510 242 0
478 239 0
491 233 0
480 230 0
489 223 0
500 222 0
476 222 0
471 229 0
457 218 0
471 207 0
468 216 0
480 214 0
490 213 0
495 202 0
504 210 0
504 197 0
503 184 0
488 193 0
511 190 0
511 174 0
497 173 0
512 163 0
471 170 0
460 163 0
482 162 0
462 179 0
472 181 0
457 190 0
476 193 0
438 193 0
430 198 0
448 186 0
452 174 0
439 173 0
425 172 0
402 174 0
418 162 0
405 163 0
413 184 0
401 185 0
416 195 0
406 197 0
411 207 0
401 205 0
420 204 0
432 211 0
443 201 0
442 211 0
451 211 0
433 220 0
448 224 0
424 214 0
421 222 0
412 216 0
407 224 0
400 218 0
388 228 0
398 229 0
378 228 0
375 213 0
394 211 0
384 204 0
354 219 0
344 207 0
372 204 0
345 221 0
371 221 0
351 227 0
360 228 0
328 216 0
339 215 0
320 221 0
311 219 0
288 217 0
296 222 0
301 214 0
302 201 0
295 207 0
313 203 0
319 209 0
322 201 0
328 207 0
333 200 0
316 189 0
339 188 0
302 189 0
293 183 0
288 200 0
289 191 0
306 159 0
300 176 0
310 181 0
321 168 0
327 161 0
324 177 0
[...]
CELL_DATA 2212
COLOR_SCALARS ColorSpace 1
0.142484
0.546405
0.334641
0.545098
0.533333
0.552941
0.460131
0.529412
0.552941
0.551634
0.397386
0.460131
0.545098
0.551634
0.50719
0.550327
0.530719
0.551634
0.394771
0.526797
0.559477
0.551634
0.479739
0.524183
0.505882
0.515033
0.375163
0.50719
0.550327
0.54902
0.359477
0.235294
0.498039
0.547712
0.552941
0.546405
0.555556
0.539869
0.355556
0.518954
0.347712
0.556863
0.551634
0.552941
0.431373
0.550327
0.560784
0.228758
0.543791
0.551634
0.547712
0.550327
0.54902
0.551634
0.537255
0.550327
0.535948
0.546405
0.547712
0.537255
0.542484
0.533333
0.54902
0.539869
0.484967
0.550327
0.477124
0.515033
0.448366
0.52549
0.477124
0.499346
0.504575
0.392157
0.512418
0.50719
0.355556
0.571242
0.479739
0.551634
0.550327
0.537255
0.554248
0.60915
0.414379
0.552941
0.518954
0.383007
0.535948
0.47451
0.498039
0.52549
0.488889
0.596078
0.504575
0.515033
0.522876
0.518954
0.554248
0.380392
0.534641
0.414379
0.393464
0.551634
0.551634
0.528105
0.552941
0.554248
0.551634
0.552941
0.522876
0.509804
0.534641
0.534641
0.551634
0.556863
0.559477
0.554248
0.554248
0.436601
0.552941
0.547712
0.328105
0.220915
0.313725
0.286275
0.405229
0.298039
0.29281
0.29281
0.322876
0.352941
0.539869
0.290196
0.478431
0.457516
0.471895
0.287582
0.166013
0.505882
0.249673
0.547712
0.551634
0.539869
0.311111
0.45098
0.560784
0.534641
0.546405
0.487582
0.551634
0.240523
0.351634
0.40915
0.475817
0.47451
0.406536
0.401307
0.339869
0.282353
0.389542
0.529412
0.258824
0.322876
0.249673
0.359477
0.341176
0.147712
0.207843
0.269281
0.360784
0.279739
0.51634
0.556863
0.363399
0.398693
0.440523
0.559477
0.428758
0.362092
0.456209
0.563399
0.392157
0.458824
0.559477
0.54902
0.508497
0.555556
0.420915
0.437908
0.518954
0.575163
0.457516
0.568627
0.473203
0.257516
0.317647
0.555556
0.398693
0.556863
0.560784
0.564706
0.547712
0.555556
0.555556
0.55817
0.554248
0.54902
0.554248
0.576471
0.552941
0.554248
0.550327
0.550327
0.554248
0.543791
0.491503
0.55817
0.551634
0.551634
0.546405
0.54902
0.552941
0.54902
0.54902
0.543791
0.535948
0.554248
0.460131
0.54902
0.550327
0.547712
0.552941
0.551634
0.54902
0.535948
0.550327
0.546405
0.54902
0.543791
0.546405
0.545098
0.547712
0.546405
0.547712
0.54902
0.550327
0.545098
0.550327
0.550327
0.543791
0.552941
0.54902
0.54902
0.547712
0.542484
0.54902
0.539869
0.54902
0.54902
0.546405
0.477124
0.54902
0.550327
0.533333
0.537255
0.546405
0.539869
0.542484
0.522876
0.538562
0.490196
0.529412
0.475817
0.470588
0.521569
0.532026
0.521569
0.490196
0.482353
0.528105
0.508497
0.542484
0.515033
0.54902
0.537255
0.530719
0.533333
0.534641
0.537255
0.405229
0.509804
0.424837
0.345098
0.51634
0.498039
0.34902
0.49281
0.511111
0.466667
0.501961
0.341176
0.500654
0.614379
0.478431
0.521569
0.473203
0.512418
0.482353
0.512418
0.575163
0.385621
0.49281
0.534641
0.580392
0.482353
0.522876
0.401307
0.524183
0.589542
0.545098
0.537255
0.430065
0.464052
0.427451
0.418301
0.532026
0.543791
0.542484
0.537255
0.546405
0.499346
0.552941
0.550327
0.545098
0.546405
0.54902
0.547712
0.554248
0.555556
0.551634
0.552941
0.555556
0.564706
0.486275
0.550327
0.484967
0.556863
0.580392
0.478431
0.508497
0.49281
0.478431
0.54902
0.52549
0.453595
0.532026
0.372549
0.462745
0.52549
0.381699
0.498039
0.448366
0.499346
0.547712
0.547712
0.456209
0.576471
0.481046
0.619608
0.453595
0.513725
0.430065
0.534641
0.445752
0.552941
0.580392
0.614379
0.428758
0.597386
0.479739
0.486275
0.380392
0.484967
0.581699
0.50719
0.563399
0.55817
0.436601
0.448366
0.484967
0.462745
0.413072
0.500654
0.486275
0.505882
0.401307
0.433987
0.526797
0.52549
0.437908
0.517647
0.44183
0.452288
0.401307
0.371242
0.503268
0.508497
0.505882
0.491503
0.487582
0.496732
0.530719
0.495425
0.503268
0.501961
0.51634
0.532026
0.532026
0.528105
0.385621
0.498039
0.414379
0.456209
0.564706
0.528105
0.550327
0.529412
0.261438
0.518954
0.501961
0.528105
0.52549
0.534641
0.511111
0.524183
0.513725
0.381699
0.530719
0.309804
0.52549
0.560784
0.56732
0.410458
0.345098
0.465359
0.528105
0.508497
0.542484
0.534641
0.568627
0.577778
0.534641
0.415686
0.538562
0.535948
0.541176
0.517647
0.530719
0.470588
0.541176
0.542484
0.54902
0.530719
0.552941
0.526797
0.552941
0.551634
0.551634
0.552941
0.481046
0.551634
0.551634
0.547712
0.522876
0.301961
0.337255
0.54902
0.457516
0.439216
0.43268
0.448366
0.512418
0.431373
0.555556
0.350327
0.419608
0.563399
0.373856
0.592157
0.503268
0.160784
0.585621
0.559477
0.475817
0.469281
0.580392
0.556863
0.552941
0.298039
0.491503
0.552941
0.410458
0.313725
0.556863
0.50719
0.317647
0.34902
0.551634
0.373856
0.538562
0.186928
0.19085
0.471895
0.403922
0.222222
0.228758
0.311111
0.313725
0.320261
0.30719
0.503268
0.360784
0.296732
0.345098
0.333333
0.301961
0.223529
0.256209
0.201307
0.305882
0.4
0.386928
0.524183
0.52549
0.484967
0.375163
0.496732
0.44183
0.335948
0.376471
0.538562
0.372549
0.247059
0.228758
0.240523
0.342484
0.236601
0.270588
0.281046
0.254902
0.239216
0.244444
0.260131
0.27451
0.330719
0.346405
0.257516
0.355556
0.375163
0.50719
0.397386
0.254902
0.29281
0.405229
0.281046
0.534641
0.298039
0.275817
0.267974
0.4
0.471895
0.32549
0.529412
0.54902
0.449673
0.54902
0.51634
0.543791
0.547712
0.552941
0.54902
0.537255
0.550327
0.546405
0.550327
0.545098
0.503268
0.555556
0.554248
0.495425
0.48366
0.437908
0.350327
0.394771
0.447059
0.418301
0.315033
0.560784
0.521569
0.461438
0.572549
0.547712
0.550327
0.584314
0.572549
0.550327
0.573856
0.556863
0.569935
0.452288
0.581699
0.457516
0.559477
0.275817
0.411765
0.396078
0.473203
0.393464
0.368627
0.398693
0.4
0.437908
0.457516
0.375163
0.354248
0.405229
0.368627
0.405229
0.401307
0.320261
0.341176
0.394771
0.419608
0.360784
0.487582
0.309804
0.30719
0.305882
0.414379
0.247059
0.471895
0.515033
0.416993
0.397386
0.449673
0.445752
0.545098
0.324183
0.538562
0.453595
0.384314
0.503268
0.393464
0.551634
0.513725
0.488889
0.515033
0.309804
0.247059
0.428758
0.371242
0.405229
0.386928
0.304575
0.401307
0.27451
0.337255
0.243137
0.207843
0.188235
0.269281
0.143791
0.16732
0.141176
0.141176
0.173856
0.168627
0.155556
0.231373
0.183007
0.236601
0.181699
0.2
0.184314
0.419608
0.24183
0.341176
0.270588
0.202614
0.185621
0.197386
0.236601
0.240523
0.394771
0.27451
0.341176
0.43268
0.35817
0.192157
0.341176
0.160784
0.152941
0.166013
0.189542
0.151634
0.296732
0.265359
0.193464
0.397386
0.298039
0.303268
0.244444
0.295425
0.284967
0.419608
0.380392
0.452288
0.264052
0.541176
0.286275
0.369935
0.517647
0.456209
0.603922
0.40915
0.568627
0.477124
0.528105
0.449673
0.338562
0.318954
0.470588
0.454902
0.386928
0.44183
0.447059
0.52549
0.355556
0.360784
0.355556
0.517647
0.494118
0.394771
0.338562
0.55817
0.322876
0.460131
0.554248
0.573856
0.554248
0.555556
0.552941
0.554248
0.552941
0.554248
0.556863
0.551634
0.552941
0.551634
0.568627
0.478431
0.55817
0.616993
0.555556
0.562092
0.55817
0.562092
0.562092
0.521569
0.575163
0.593464
0.473203
0.435294
0.254902
0.55817
0.552941
0.384314
0.347712
0.383007
0.366013
0.324183
0.254902
0.237908
0.356863
0.416993
0.351634
0.397386
0.515033
0.576471
0.428758
0.369935
0.537255
0.481046
0.2
0.56732
0.462745
0.436601
0.559477
0.566013
0.560784
0.559477
0.568627
0.576471
0.55817
0.556863
0.552941
0.559477
0.575163
0.569935
0.470588
0.431373
0.512418
0.560784
0.589542
0.584314
0.554248
0.571242
0.560784
0.559477
0.559477
0.552941
0.559477
0.551634
0.559477
0.551634
0.55817
0.54902
0.551634
0.554248
0.55817
0.551634
0.551634
0.552941
0.551634
0.550327
0.554248
0.55817
0.552941
0.556863
0.560784
0.563399
0.552941
0.554248
0.556863
0.551634
0.551634
0.556863
0.556863
0.555556
0.552941
0.555556
0.554248
0.555556
0.551634
0.555556
0.551634
0.550327
0.550327
0.551634
0.552941
0.552941
0.546405
0.552941
0.551634
0.543791
0.54902
0.551634
0.554248
0.550327
0.550327
0.551634
0.551634
0.550327
0.551634
0.551634
0.551634
0.550327
0.550327
0.550327
0.551634
0.552941
0.551634
0.552941
0.552941
0.552941
0.552941
0.554248
0.551634
0.551634
0.554248
0.550327
0.550327
0.550327
0.554248
0.551634
0.552941
0.554248
0.555556
0.552941
0.552941
0.551634
0.551634
0.554248
0.554248
0.552941
0.552941
0.554248
0.551634
0.551634
0.547712
0.550327
0.550327
0.550327
0.551634
0.54902
0.552941
0.551634
0.550327
0.551634
0.545098
0.550327
0.524183
0.54902
0.547712
0.54902
0.547712
0.54902
0.54902
0.547712
0.547712
0.54902
0.547712
0.54902
0.547712
0.546405
0.54902
0.541176
0.546405
0.54902
0.54902
0.550327
0.54902
0.551634
0.543791
0.547712
0.551634
0.551634
0.551634
0.542484
0.550327
0.547712
0.54902
0.545098
0.545098
0.547712
0.546405
0.542484
0.541176
0.542484
0.538562
0.546405
0.545098
0.543791
0.54902
0.539869
0.543791
0.542484
0.541176
0.537255
0.543791
0.541176
0.539869
0.538562
0.547712
0.542484
0.546405
0.545098
0.543791
0.543791
0.547712
0.551634
0.547712
0.551634
0.546405
0.54902
0.550327
0.54902
0.551634
0.550327
0.551634
0.54902
0.551634
0.552941
0.552941
0.551634
0.547712
0.550327
0.554248
0.556863
0.54902
0.547712
0.551634
0.550327
0.551634
0.552941
0.552941
0.552941
0.550327
0.54902
0.54902
0.551634
0.550327
0.54902
0.54902
0.547712
0.54902
0.547712
0.547712
0.54902
0.54902
0.54902
0.54902
0.54902
0.550327
0.551634
0.547712
0.54902
0.547712
0.550327
0.547712
0.54902
0.54902
0.546405
0.545098
0.546405
0.543791
0.54902
0.547712
0.54902
0.547712
0.545098
0.547712
0.539869
0.550327
0.546405
0.547712
0.542484
0.54902
0.543791
0.550327
0.547712
0.547712
0.547712
0.545098
0.542484
0.545098
0.545098
0.541176
0.542484
0.543791
0.543791
0.535948
0.530719
0.534641
0.538562
0.545098
0.533333
0.542484
0.534641
0.538562
0.529412
0.539869
0.530719
0.537255
0.534641
0.541176
0.538562
0.526797
0.537255
0.511111
0.509804
0.51634
0.503268
0.533333
0.521569
0.512418
0.526797
0.503268
0.518954
0.515033
0.470588
0.504575
0.501961
0.47451
0.473203
0.469281
0.467974
0.465359
0.461438
0.471895
0.462745
0.458824
0.475817
0.47451
0.477124
0.490196
0.49281
0.505882
0.484967
0.511111
0.521569
0.511111
0.447059
0.504575
0.496732
0.479739
0.482353
0.481046
0.47451
0.490196
0.487582
0.478431
0.48366
0.462745
0.494118
0.498039
0.503268
0.487582
0.534641
0.494118
0.499346
0.503268
0.526797
0.547712
0.518954
0.611765
0.513725
0.535948
0.515033
0.521569
0.520261
0.508497
0.518954
0.522876
0.513725
0.508497
0.538562
0.534641
0.529412
0.533333
0.542484
0.542484
0.547712
0.545098
0.535948
0.532026
0.545098
0.539869
0.541176
0.538562
0.562092
0.458824
0.54902
0.56732
0.504575
0.467974
0.486275
0.418301
0.504575
0.535948
0.546405
0.564706
0.541176
0.430065
0.460131
0.486275
0.40915
0.503268
0.467974
0.39085
0.435294
0.500654
0.415686
0.465359
0.610458
0.498039
0.403922
0.498039
0.426144
0.456209
0.498039
0.500654
0.518954
0.491503
0.491503
0.486275
0.494118
0.546405
0.478431
0.482353
0.491503
0.501961
0.498039
0.48366
0.50719
0.503268
0.568627
0.56732
0.345098
0.478431
0.458824
0.63268
0.505882
0.535948
0.551634
0.511111
0.560784
0.342484
0.504575
0.376471
0.457516
0.503268
0.341176
0.49281
0.498039
0.487582
0.427451
0.466667
0.486275
0.48366
0.482353
0.401307
0.44183
0.47451
0.439216
0.403922
0.388235
0.431373
0.40915
0.433987
0.31634
0.320261
0.499346
0.596078
0.328105
0.452288
0.356863
0.422222
0.467974
0.334641
0.435294
0.498039
0.473203
0.375163
0.350327
0.656209
0.332026
0.551634
0.467974
0.460131
0.305882
0.373856
0.44183
0.364706
0.364706
0.377778
0.303268
0.521569
0.346405
0.435294
0.401307
0.403922
0.603922
0.456209
0.436601
0.45098
0.529412
0.454902
0.478431
0.541176
0.471895
0.444444
0.541176
0.490196
0.545098
0.543791
0.511111
0.426144
0.377778
0.413072
0.495425
0.456209
0.352941
0.499346
0.52549
0.481046
0.486275
0.428758
0.43268
0.526797
0.388235
0.362092
0.533333
0.526797
0.470588
0.529412
0.440523
0.564706
0.537255
0.529412
0.534641
0.530719
0.50719
0.537255
0.526797
0.55817
0.528105
0.537255
0.539869
0.526797
0.418301
0.541176
0.545098
0.534641
0.535948
0.547712
0.539869
0.542484
0.538562
0.543791
0.542484
0.546405
0.543791
0.551634
0.552941
0.552941
0.552941
0.546405
0.54902
0.551634
0.551634
0.550327
0.547712
0.54902
0.552941
0.552941
0.552941
0.550327
0.54902
0.556863
0.55817
0.554248
0.551634
0.547712
0.54902
0.54902
0.547712
0.545098
0.616993
0.539869
0.377778
0.543791
0.505882
0.513725
0.532026
0.543791
0.547712
0.542484
0.54902
0.545098
0.543791
0.551634
0.550327
0.551634
0.543791
0.55817
0.503268
0.403922
0.473203
0.550327
0.546405
0.368627
0.541176
0.529412
0.579085
0.55817
0.405229
0.547712
0.594771
0.458824
0.439216
0.569935
0.517647
0.577778
0.515033
0.505882
0.538562
0.466667
0.488889
0.526797
0.488889
0.576471
0.488889
0.47451
0.563399
0.513725
0.545098
0.54902
0.593464
0.543791
0.579085
0.543791
0.55817
0.566013
0.521569
0.505882
0.513725
0.556863
0.556863
0.466667
0.521569
0.482353
0.478431
0.479739
0.552941
0.403922
0.556863
0.494118
0.439216
0.471895
0.495425
0.296732
0.494118
0.498039
0.427451
0.462745
0.460131
0.517647
0.50719
0.503268
0.55817
0.405229
0.551634
0.479739
0.380392
0.554248
0.403922
0.423529
0.500654
0.407843
0.528105
0.321569
0.394771
0.589542
0.460131
0.530719
0.376471
0.389542
0.448366
0.479739
0.518954
0.505882
0.363399
0.364706
0.495425
0.428758
0.543791
0.439216
0.430065
0.445752
0.550327
0.576471
0.373856
0.51634
0.538562
0.389542
0.453595
0.635294
0.509804
0.43268
0.51634
0.315033
0.356863
0.4
0.671895
0.328105
0.560784
0.40915
0.388235
0.518954
0.381699
0.337255
0.418301
0.386928
0.575163
0.614379
0.511111
0.498039
0.649673
0.511111
0.368627
0.513725
0.437908
0.596078
0.354248
0.350327
0.392157
0.338562
0.498039
0.359477
0.504575
0.538562
0.454902
0.513725
0.488889
0.484967
0.433987
0.481046
0.51634
0.486275
0.569935
0.530719
0.501961
0.494118
0.509804
0.321569
0.586928
0.478431
0.34902
0.545098
0.49281
0.427451
0.616993
0.475817
0.560784
0.55817
0.371242
0.436601
0.43268
0.542484
0.418301
0.369935
0.522876
0.457516
0.48366
0.482353
0.49281
0.487582
0.479739
0.471895
0.40915
0.503268
0.471895
0.513725
0.498039
0.509804
0.48366
0.36732
0.448366
0.388235
0.436601
0.498039
0.449673
0.419608
0.430065
0.530719
0.44183
0.36732
0.56732
0.369935
0.45098
0.47451
0.403922
0.385621
0.579085
0.512418
0.43268
0.511111
0.522876
0.398693
0.419608
0.460131
0.47451
0.406536
0.427451
0.405229
0.469281
0.294118
0.275817
0.317647
0.427451
0.288889
0.386928
0.386928
0.398693
0.406536
0.321569
0.346405
0.411765
0.304575
0.509804
0.486275
0.576471
0.452288
0.420915
0.430065
0.303268
0.45098
0.478431
0.383007
0.388235
0.300654
0.414379
0.533333
0.546405
0.320261
0.396078
0.364706
0.461438
0.440523
0.530719
0.560784
0.505882
0.508497
0.495425
0.49281
0.49281
0.503268
0.496732
0.482353
0.482353
0.479739
0.499346
0.503268
0.512418
0.508497
0.508497
0.509804
0.36732
0.481046
0.487582
0.498039
0.501961
0.496732
0.484967
0.496732
0.486275
0.486275
0.48366
0.478431
0.478431
0.475817
0.47451
0.478431
0.478431
0.511111
0.498039
0.491503
0.520261
0.647059
0.524183
0.518954
0.52549
0.520261
0.51634
0.521569
0.520261
0.334641
0.51634
0.521569
0.504575
0.466667
0.605229
0.511111
0.524183
0.371242
0.518954
0.453595
0.54902
0.605229
0.522876
0.428758
0.538562
0.526797
0.520261
0.464052
0.515033
0.526797
0.528105
0.52549
0.517647
0.538562
0.52549
0.551634
0.528105
0.543791
0.381699
0.454902
0.471895
0.504575
0.397386
0.530719
0.445752
0.428758
0.511111
0.521569
0.422222
0.529412
0.539869
0.420915
0.462745
0.426144
0.317647
0.640523
0.575163
0.436601
0.461438
0.384314
0.375163
0.320261
0.522876
0.521569
0.504575
0.470588
0.518954
0.495425
0.490196
0.532026
0.484967
0.521569
0.503268
0.439216
0.466667
0.304575
0.308497
0.418301
0.49281
0.547712
0.550327
0.521569
0.512418
0.51634
0.571242
0.537255
0.554248
0.546405
0.550327
0.533333
0.488889
0.550327
0.521569
0.539869
0.541176
0.534641
0.532026
0.461438
0.517647
0.520261
0.430065
0.418301
0.304575
0.526797
0.569935
0.521569
0.550327
0.461438
0.566013
0.569935
0.55817
0.410458
0.478431
0.596078
0.577778
0.593464
0.448366
0.426144
0.462745
0.566013
0.535948
0.52549
0.48366
0.524183
0.568627
0.478431
0.56732
0.541176
0.539869
0.454902
0.538562
0.532026
0.499346
0.562092
0.52549
0.551634
0.457516
0.529412
0.371242
0.411765
0.496732
0.490196
0.552941
0.386928
0.537255
0.54902
0.543791
0.47451
0.486275
0.403922
0.385621
0.456209
0.447059
0.524183
0.533333
0.482353
0.537255
0.478431
0.528105
0.522876
0.530719
0.518954
0.511111
0.537255
0.534641
0.542484
0.537255
0.522876
0.538562
0.535948
0.541176
0.542484
0.535948
0.528105
0.535948
0.534641
0.551634
0.551634
0.543791
0.517647
0.550327
0.550327
0.522876
0.555556
0.551634
0.550327
0.550327
0.54902
0.551634
0.551634
0.552941
0.552941
0.551634
0.551634
0.552941
0.552941
0.552941
0.551634
0.55817
0.551634
0.555556
0.551634
0.551634
0.551634
0.551634
0.554248
0.551634
0.342484
0.551634
0.551634
0.552941
0.550327
0.428758
0.577778
0.552941
0.551634
0.55817
0.317647
0.54902
0.551634
0.532026
0.550327
0.530719
0.552941
0.495425
0.494118
0.458824
0.464052
0.543791
0.552941
0.398693
0.541176
0.439216
0.543791
0.389542
0.436601
0.39085
0.431373
0.415686
0.520261
0.320261
0.488889
0.528105
0.530719
0.356863
0.539869
0.410458
0.448366
0.569935
0.528105
0.452288
0.538562
0.584314
0.503268
0.445752
0.486275
0.594771
0.537255
0.352941
0.55817
0.533333
0.521569
0.575163
0.52549
0.475817
0.332026
0.610458
0.542484
0.563399
0.435294
0.555556
0.559477
0.551634
0.546405
0.550327
0.550327
0.551634
0.554248
0.550327
0.556863
0.551634
0.550327
0.605229
0.562092
0.55817
0.584314
0.613072
0.47451
0.51634
0.509804
0.444444
0.428758
0.594771
0.512418
0.389542
0.526797
0.555556
0.488889
0.556863
0.562092
0.550327
0.555556
0.556863
0.55817
0.385621
0.445752
0.39085
0.573856
0.566013
0.522876
0.313725
0.313725
0.407843
0.218301
0.572549
0.535948
0.513725
0.471895
0.448366
0.44183
0.248366
0.556863
0.452288
0.494118
0.40915
0.547712
0.394771
0.452288
0.551634
0.512418
0.50719
0.580392
0.552941
0.56732
0.554248
0.555556
0.551634
0.556863
0.552941
0.555556
0.551634
0.556863
0.552941
0.546405
0.555556
0.552941
0.539869
0.55817
0.556863
0.556863
0.403922
0.304575
0.555556
0.278431
0.542484
0.397386
0.501961
0.201307
0.543791
0.413072
0.318954
0.278431
0.180392
0.205229
0.296732
0.278431
0.433987
0.334641
0.551634
0.29281
0.288889
0.541176
0.172549
0.39085
0.179085
0.176471
0.369935
0.473203
0.337255
0.350327
0.44183
0.406536
0.431373
0.312418
0.295425
0.384314
0.214379
0.228758
0.332026
0.456209
0.210458
0.202614
0.202614
0.179085
0.145098
0.16732
0.220915
0.172549
0.224837
0.185621
0.375163
0.287582
0.334641
0.183007
0.402614
0.324183
0.224837
0.333333
0.156863
0.193464
0.193464
0.194771
0.243137
0.215686
0.30719
0.236601
0.275817
0.261438
0.379085
0.326797
0.279739
0.356863
0.296732
0.393464
0.419608
0.354248
0.375163
0.295425
0.341176
0.298039
0.291503
0.308497
0.346405
0.34902
0.371242
0.313725
0.309804
0.193464
0.196078
0.329412
0.294118
0.25098
0.30719
0.260131
0.35817
0.386928
0.342484
0.401307
0.388235
0.288889
0.295425
0.303268
0.279739
0.29281
0.31634
0.308497
0.213072
0.313725
0.287582
0.235294
0.351634
0.284967
0.236601
0.290196
0.521569
0.373856
0.362092
0.375163
0.288889
0.363399
0.273203
0.31634
0.324183
0.362092
0.550327
0.433987
0.342484
0.491503
0.414379
0.504575
0.427451
0.50719
0.552941
0.529412
0.484967
0.554248
0.55817
0.555556
0.552941
0.552941
0.550327
0.554248
0.518954
0.551634
0.543791
0.543791
0.545098
0.501961
0.529412
0.555556
0.55817
0.535948
0.556863
0.416993
0.436601
0.381699
0.363399
0.332026
0.313725
0.496732
0.524183
0.508497
0.529412
0.541176
0.546405
0.512418
0.509804
0.550327
0.513725
0.54902
0.520261
0.550327
0.543791
0.51634
0.423529
0.511111
0.322876
0.275817
0.28366
0.27451
0.265359
0.333333
0.354248
0.345098
0.322876
0.270588
0.366013
0.287582
0.245752
0.30719
0.313725
0.275817
0.278431
0.198693
0.324183
0.24183
0.198693
0.192157
0.366013
0.311111
0.339869
0.275817
0.258824
