# vtk DataFile Version 1.0
Unstructured Grid Example
ASCII

DATASET UNSTRUCTURED_GRID
POINTS 12409 float
125 176 0
298 26 0
278 266 0
76 301 0
214 371 0
185 418 0
403 388 0
491 438 0
318 463 0
303 340 0
483 333 0
305 208 0
110 221 0
0 3 0
232 205 0
264 116 0
213 304 0
259 259 0
114 324 0
71 322 0
49 259 0
83 402 0
5 403 0
22 461 0
33 473 0
85 455 0
179 484 0
249 399 0
290 369 0
231 348 0
312 404 0
292 411 0
381 413 0
355 510 0
461 495 0
404 488 0
472 419 0
474 409 0
467 409 0
347 392 0
482 348 0
305 363 0
303 333 0
333 330 0
355 296 0
435 319 0
470 310 0
463 313 0
10 260 0
0 211 0
4 272 0
4 276 0
44 250 0
26 234 0
59 223 0
62 215 0
14 180 0
76 71 0
142 1 0
214 207 0
216 186 0
191 258 0
217 273 0
136 228 0
88 250 0
82 260 0
125 323 0
210 293 0
214 315 0
225 314 0
208 368 0
232 363 0
187 383 0
131 366 0
111 364 0
89 355 0
111 370 0
104 350 0
107 296 0
12 317 0
52 317 0
60 341 0
52 342 0
26 344 0
3 395 0
43 394 0
49 389 0
60 387 0
82 434 0
82 456 0
78 427 0
30 439 0
15 450 0
14 491 0
1 503 0
7 505 0
9 507 0
95 511 0
87 506 0
76 495 0
51 494 0
67 469 0
95 463 0
98 466 0
115 483 0
123 513 0
168 513 0
203 499 0
179 488 0
144 481 0
187 482 0
220 425 0
220 445 0
155 454 0
105 445 0
141 395 0
138 411 0
160 400 0
195 390 0
211 405 0
238 327 0
236 322 0
285 334 0
316 353 0
281 382 0
326 381 0
278 375 0
263 392 0
257 357 0
238 414 0
277 393 0
294 414 0
240 458 0
304 513 0
313 513 0
307 511 0
312 507 0
321 457 0
427 401 0
337 390 0
405 413 0
342 424 0
461 499 0
481 509 0
486 427 0
476 401 0
499 396 0
465 378 0
371 380 0
367 361 0
367 383 0
357 350 0
346 338 0
435 348 0
456 357 0
481 328 0
456 288 0
500 294 0
457 253 0
485 236 0
314 277 0
332 285 0
371 292 0
430 294 0
405 320 0
286 321 0
261 321 0
249 312 0
234 316 0
245 293 0
242 279 0
287 310 0
289 232 0
307 309 0
321 110 0
326 230 0
260 83 0
245 212 0
283 42 0
312 80 0
313 10 0
332 11 0
339 16 0
422 150 0
363 88 0
450 191 0
436 193 0
439 197 0
457 177 0
499 49 0
490 19 0
512 10 0
503 6 0
0 8 0
11 21 0
14 3 0
51 81 0
44 196 0
64 235 0
19 240 0
13 216 0
11 197 0
9 263 0
0 258 0
15 269 0
42 272 0
53 266 0
60 277 0
65 258 0
49 248 0
59 243 0
91 268 0
81 234 0
73 269 0
70 275 0
110 276 0
112 262 0
95 261 0
91 227 0
92 250 0
126 214 0
95 219 0
86 219 0
76 223 0
79 108 0
90 167 0
99 188 0
122 208 0
104 206 0
133 209 0
132 212 0
129 214 0
145 215 0
195 186 0
208 215 0
170 171 0
168 152 0
203 57 0
210 128 0
240 61 0
243 88 0
248 25 0
240 138 0
253 202 0
233 209 0
232 195 0
221 146 0
174 227 0
189 251 0
194 222 0
225 254 0
247 264 0
252 274 0
219 264 0
209 269 0
204 272 0
153 227 0
155 251 0
164 223 0
167 219 0
146 247 0
134 245 0
151 257 0
132 262 0
127 276 0
106 282 0
112 300 0
100 301 0
104 305 0
198 315 0
144 319 0
112 310 0
204 309 0
117 308 0
224 281 0
227 285 0
232 294 0
244 278 0
233 322 0
251 294 0
226 311 0
218 321 0
212 321 0
199 343 0
199 326 0
204 346 0
211 325 0
244 363 0
251 347 0
240 347 0
196 357 0
189 356 0
180 360 0
125 350 0
188 347 0
183 344 0
96 342 0
101 330 0
95 352 0
99 357 0
119 362 0
78 356 0
73 354 0
71 360 0
59 358 0
55 349 0
54 353 0
56 345 0
64 346 0
93 338 0
94 298 0
90 302 0
91 289 0
85 288 0
70 282 0
80 282 0
65 293 0
83 313 0
85 332 0
20 291 0
35 296 0
23 290 0
34 281 0
4 280 0
6 278 0
13 285 0
2 298 0
18 307 0
47 329 0
26 331 0
48 322 0
50 334 0
52 320 0
49 353 0
26 352 0
23 341 0
0 338 0
22 363 0
8 366 0
21 374 0
37 380 0
36 383 0
42 425 0
55 422 0
53 406 0
59 373 0
62 366 0
73 403 0
69 374 0
109 375 0
124 389 0
113 421 0
118 418 0
87 418 0
82 431 0
78 424 0
101 434 0
58 433 0
110 436 0
123 434 0
104 448 0
98 438 0
94 442 0
92 448 0
70 440 0
46 441 0
55 442 0
57 439 0
42 437 0
3 432 0
29 431 0
7 436 0
21 439 0
23 446 0
0 469 0
15 454 0
32 477 0
50 450 0
42 488 0
55 490 0
27 482 0
23 483 0
6 478 0
22 503 0
20 502 0
4 509 0
24 512 0
48 510 0
46 509 0
42 499 0
34 498 0
33 493 0
83 496 0
90 498 0
70 507 0
56 510 0
90 513 0
117 509 0
101 503 0
117 501 0
122 492 0
92 473 0
112 478 0
66 474 0
63 487 0
58 479 0
88 470 0
77 448 0
89 463 0
97 469 0
107 461 0
144 446 0
134 445 0
151 438 0
154 440 0
154 462 0
138 471 0
132 477 0
132 458 0
126 453 0
138 504 0
139 479 0
127 508 0
136 509 0
145 496 0
143 495 0
155 493 0
144 486 0
162 487 0
166 497 0
163 496 0
191 501 0
173 513 0
198 483 0
220 509 0
227 482 0
235 475 0
247 473 0
235 458 0
225 454 0
206 463 0
191 464 0
178 435 0
203 448 0
208 439 0
223 437 0
211 439 0
251 414 0
237 419 0
233 408 0
232 403 0
195 402 0
227 406 0
193 408 0
213 434 0
232 411 0
148 424 0
165 429 0
142 417 0
141 424 0
137 407 0
166 403 0
176 412 0
183 414 0
189 408 0
182 399 0
193 393 0
173 396 0
152 399 0
139 378 0
154 375 0
171 379 0
174 393 0
176 376 0
213 368 0
200 366 0
203 375 0
214 392 0
205 398 0
235 400 0
225 401 0
235 378 0
223 370 0
239 367 0
260 337 0
260 342 0
261 356 0
266 362 0
280 369 0
299 369 0
278 367 0
296 360 0
299 331 0
306 333 0
308 339 0
309 329 0
327 344 0
339 364 0
342 371 0
319 348 0
315 358 0
303 356 0
340 372 0
346 372 0
350 379 0
352 382 0
350 394 0
351 385 0
348 388 0
347 382 0
333 388 0
314 391 0
282 392 0
299 391 0
279 389 0
278 381 0
269 378 0
260 391 0
275 397 0
270 399 0
257 408 0
260 408 0
276 400 0
278 401 0
304 410 0
304 414 0
301 408 0
289 409 0
266 416 0
267 419 0
254 416 0
269 435 0
272 494 0
285 478 0
298 475 0
288 457 0
295 450 0
289 418 0
323 465 0
316 447 0
305 478 0
308 502 0
327 510 0
351 501 0
349 482 0
336 474 0
328 446 0
314 423 0
313 429 0
313 434 0
306 424 0
317 411 0
315 420 0
343 411 0
347 403 0
349 414 0
435 414 0
411 417 0
438 416 0
451 415 0
455 447 0
422 430 0
420 441 0
388 430 0
368 418 0
375 449 0
366 450 0
360 490 0
360 503 0
448 510 0
381 513 0
452 498 0
448 475 0
400 468 0
466 464 0
480 452 0
456 469 0
469 508 0
511 513 0
509 504 0
512 481 0
501 439 0
502 450 0
505 427 0
497 435 0
497 424 0
477 439 0
458 418 0
470 415 0
472 411 0
481 411 0
509 410 0
494 401 0
500 402 0
467 394 0
470 387 0
408 392 0
432 399 0
427 404 0
409 404 0
424 405 0
406 409 0
383 408 0
373 407 0
371 410 0
364 397 0
361 399 0
379 405 0
382 395 0
394 394 0
440 384 0
384 370 0
362 382 0
362 386 0
367 353 0
356 369 0
373 336 0
373 359 0
410 342 0
444 331 0
448 349 0
455 354 0
446 360 0
452 378 0
495 380 0
494 374 0
492 366 0
484 366 0
486 360 0
512 319 0
507 323 0
485 323 0
458 323 0
466 291 0
461 279 0
467 303 0
472 306 0
483 298 0
505 252 0
503 248 0
507 225 0
490 222 0
441 259 0
478 251 0
481 268 0
444 270 0
450 271 0
417 272 0
375 272 0
395 270 0
395 243 0
348 252 0
357 224 0
354 261 0
350 270 0
363 281 0
360 300 0
364 291 0
407 292 0
440 302 0
379 303 0
389 319 0
378 309 0
343 329 0
343 310 0
325 326 0
319 308 0
328 305 0
323 289 0
304 306 0
306 287 0
290 319 0
289 322 0
313 326 0
280 318 0
261 317 0
253 315 0
253 323 0
261 312 0
253 286 0
262 301 0
273 295 0
273 303 0
272 240 0
255 277 0
253 253 0
253 283 0
264 217 0
263 227 0
264 224 0
272 221 0
274 236 0
276 229 0
276 215 0
278 242 0
291 252 0
283 255 0
328 283 0
299 254 0
301 247 0
316 245 0
308 223 0
319 163 0
348 204 0
330 150 0
321 139 0
308 132 0
293 144 0
295 152 0
313 169 0
292 174 0
282 210 0
269 208 0
262 200 0
261 190 0
275 152 0
265 142 0
281 165 0
287 170 0
288 128 0
301 105 0
294 99 0
285 121 0
266 110 0
271 71 0
259 23 0
285 57 0
292 34 0
310 72 0
318 25 0
323 29 0
321 85 0
316 115 0
324 50 0
345 83 0
326 44 0
350 35 0
329 26 0
359 32 0
353 58 0
369 53 0
374 27 0
385 104 0
391 121 0
382 74 0
365 62 0
350 96 0
362 140 0
359 176 0
383 186 0
385 208 0
407 178 0
396 190 0
398 172 0
390 167 0
407 135 0
412 200 0
428 176 0
421 209 0
417 214 0
446 195 0
505 208 0
443 185 0
512 179 0
444 175 0
488 127 0
481 62 0
440 104 0
419 146 0
414 153 0
443 46 0
419 33 0
490 57 0
494 7 0
508 20 0
0 12 0
2 5 0
3 27 0
0 46 0
19 65 0
14 30 0
5 18 0
4 7 0
4 10 0
30 1 0
21 1 0
46 1 0
56 1 0
59 36 0
45 35 0
22 24 0
21 11 0
21 16 0
49 173 0
36 74 0
66 157 0
67 91 0
65 231 0
68 224 0
64 226 0
48 234 0
43 223 0
24 224 0
33 232 0
24 216 0
33 193 0
20 93 0
0 120 0
9 126 0
2 221 0
13 231 0
3 239 0
0 237 0
9 238 0
24 242 0
20 248 0
9 242 0
5 243 0
0 244 0
2 248 0
1 252 0
0 250 0
9 256 0
10 268 0
14 259 0
13 268 0
11 254 0
20 254 0
14 249 0
35 255 0
38 263 0
28 268 0
32 268 0
44 269 0
51 262 0
53 257 0
67 256 0
60 255 0
53 251 0
56 254 0
29 249 0
24 252 0
37 236 0
30 236 0
42 238 0
44 245 0
65 248 0
72 240 0
81 238 0
83 241 0
90 237 0
97 250 0
86 244 0
81 255 0
76 247 0
79 244 0
74 258 0
76 260 0
68 261 0
70 265 0
78 267 0
78 263 0
92 262 0
92 259 0
87 257 0
118 263 0
106 265 0
115 269 0
103 270 0
120 270 0
118 268 0
135 266 0
131 265 0
128 264 0
127 258 0
127 255 0
116 256 0
104 259 0
105 239 0
120 254 0
124 254 0
132 248 0
128 248 0
140 233 0
135 216 0
136 206 0
139 204 0
132 215 0
130 205 0
128 226 0
125 228 0
131 237 0
115 219 0
108 225 0
101 235 0
80 220 0
68 209 0
79 214 0
97 214 0
111 217 0
112 205 0
98 196 0
92 198 0
86 202 0
78 197 0
71 19 0
80 174 0
91 157 0
96 124 0
96 141 0
101 161 0
107 156 0
117 170 0
112 191 0
105 192 0
138 198 0
133 198 0
134 190 0
137 184 0
129 184 0
153 32 0
152 150 0
159 169 0
160 125 0
152 170 0
169 181 0
145 192 0
143 178 0
141 192 0
146 201 0
157 201 0
160 207 0
142 207 0
161 199 0
160 203 0
164 197 0
170 195 0
166 194 0
182 183 0
175 188 0
172 202 0
185 207 0
189 196 0
193 197 0
187 191 0
188 186 0
191 182 0
191 168 0
192 175 0
185 161 0
180 177 0
181 17 0
176 151 0
182 60 0
187 1 0
193 142 0
204 1 0
214 45 0
214 100 0
209 164 0
218 166 0
222 173 0
222 155 0
220 132 0
226 80 0
226 40 0
231 51 0
237 76 0
246 52 0
248 123 0
254 160 0
246 131 0
234 88 0
233 162 0
241 187 0
226 190 0
247 174 0
250 182 0
248 196 0
246 205 0
244 200 0
243 195 0
227 202 0
223 200 0
221 203 0
219 200 0
208 191 0
206 185 0
199 181 0
200 191 0
200 205 0
207 206 0
208 218 0
202 217 0
202 228 0
208 229 0
217 228 0
212 227 0
213 223 0
211 217 0
219 214 0
222 213 0
219 219 0
228 208 0
241 217 0
248 229 0
245 226 0
244 232 0
229 230 0
225 220 0
222 251 0
238 234 0
244 240 0
246 237 0
249 266 0
236 260 0
235 269 0
225 268 0
234 265 0
218 269 0
220 260 0
221 244 0
219 241 0
212 236 0
216 238 0
213 248 0
214 267 0
215 260 0
198 263 0
200 235 0
196 268 0
[...]
CELL_DATA 24449
COLOR_SCALARS ColorSpace 1
0.501961
0.381699
0.411765
0.439216
0.371242
0.339869
0.12549
0.288889
0.369935
0.279739
0.301961
0.328105
0.296732
0.135948
0.162092
0.406536
0.277124
0.447059
0.430065
0.175163
0.0941176
0.4
0.115033
0.308497
0.501961
0.343791
0.466667
0.360784
0.486275
0.117647
0.376471
0.160784
0.403922
0.171242
0.303268
0.267974
0.364706
0.322876
0.418301
0.101961
0.300654
0.0941176
0.44183
0.312418
0.172549
0.220915
0.301961
0.356863
0.339869
0.198693
0.351634
0.380392
0.406536
0.121569
0.419608
0.369935
0.318954
0.281046
0.346405
0.266667
0.308497
0.25098
0.210458
0.447059
0.457516
0.105882
0.15817
0.270588
0.181699
0.171242
0.509804
0.235294
0.513725
0.224837
0.403922
0.326797
0.43268
0.326797
0.384314
0.392157
0.422222
0.0928105
0.396078
0.118954
0.462745
0.403922
0.111111
0.124183
0.415686
0.305882
0.333333
0.360784
0.413072
0.313725
0.31634
0.311111
0.324183
0.279739
0.401307
0.372549
0.383007
0.362092
0.377778
0.36732
0.394771
0.414379
0.45098
0.39085
0.4
0.413072
0.473203
0.454902
0.284967
0.371242
0.407843
0.337255
0.35817
0.111111
0.150327
0.350327
0.405229
0.354248
0.152941
0.397386
0.326797
0.375163
0.105882
0.337255
0.105882
0.354248
0.108497
0.117647
0.418301
0.118954
0.423529
0.313725
0.362092
0.397386
0.117647
0.389542
0.111111
0.364706
0.111111
0.372549
0.345098
0.0993464
0.117647
0.10719
0.371242
0.111111
0.275817
0.322876
0.345098
0.172549
0.373856
0.411765
0.313725
0.290196
0.299346
0.296732
0.298039
0.100654
0.338562
0.160784
0.34902
0.334641
0.278431
0.328105
0.282353
0.294118
0.201307
0.437908
0.298039
0.273203
0.303268
0.198693
0.261438
0.228758
0.389542
0.180392
0.151634
0.385621
0.372549
0.133333
0.398693
0.328105
0.458824
0.185621
0.439216
0.338562
0.379085
0.366013
0.368627
0.290196
0.273203
0.219608
0.214379
0.156863
0.410458
0.282353
0.220915
0.312418
0.290196
0.301961
0.364706
0.30719
0.290196
0.16732
0.333333
0.311111
0.129412
0.335948
0.332026
0.341176
0.333333
0.377778
0.300654
0.360784
0.377778
0.333333
0.298039
0.139869
0.105882
0.105882
0.303268
0.100654
0.111111
0.471895
0.355556
0.343791
0.372549
0.373856
0.346405
0.121569
0.32549
0.39085
0.328105
0.375163
0.436601
0.464052
0.467974
0.368627
0.366013
0.439216
0.305882
0.444444
0.363399
0.375163
0.36732
0.303268
0.301961
0.372549
0.304575
0.294118
0.305882
0.266667
0.278431
0.294118
0.279739
0.112418
0.154248
0.145098
0.159477
0.154248
0.273203
0.236601
0.222222
0.496732
0.330719
0.321569
0.376471
0.236601
0.326797
0.287582
0.542484
0.526797
0.529412
0.51634
0.384314
0.623529
0.39085
0.394771
0.318954
0.430065
0.248366
0.273203
0.295425
0.444444
0.326797
0.245752
0.298039
0.0980392
0.324183
0.447059
0.290196
0.0954248
0.415686
0.388235
0.402614
0.384314
0.368627
0.330719
0.490196
0.389542
0.389542
0.415686
0.105882
0.453595
0.4
0.20915
0.338562
0.163399
0.130719
0.428758
0.100654
0.101961
0.105882
0.100654
0.431373
0.39085
0.34902
0.364706
0.350327
0.415686
0.339869
0.115033
0.345098
0.291503
0.338562
0.141176
0.333333
0.381699
0.334641
0.290196
0.396078
0.356863
0.460131
0.133333
0.376471
0.128105
0.150327
0.371242
0.484967
0.383007
0.108497
0.484967
0.508497
0.299346
0.508497
0.122876
0.766013
0.496732
0.515033
0.444444
0.318954
0.631373
0.393464
0.124183
0.413072
0.10719
0.394771
0.385621
0.392157
0.4
0.410458
0.406536
0.628758
0.473203
0.487582
0.467974
0.513725
0.613072
0.475817
0.479739
0.488889
0.630065
0.482353
0.433987
0.416993
0.426144
0.40915
0.393464
0.384314
0.381699
0.388235
0.40915
0.401307
0.414379
0.427451
0.437908
0.312418
0.318954
0.317647
0.294118
0.375163
0.105882
0.413072
0.384314
0.380392
0.372549
0.317647
0.145098
0.372549
0.350327
0.402614
0.386928
0.36732
0.104575
0.364706
0.396078
0.411765
0.388235
0.392157
0.380392
0.337255
0.343791
0.39085
0.115033
0.173856
0.359477
0.388235
0.376471
0.354248
0.352941
0.239216
0.401307
0.39085
0.364706
0.386928
0.403922
0.383007
0.375163
0.449673
0.424837
0.430065
0.407843
0.430065
0.40915
0.236601
0.394771
0.377778
0.16732
0.298039
0.171242
0.362092
0.335948
0.405229
0.411765
0.143791
0.120261
0.355556
0.309804
0.359477
0.458824
0.377778
0.487582
0.445752
0.479739
0.433987
0.464052
0.435294
0.440523
0.464052
0.452288
0.461438
0.461438
0.505882
0.4
0.422222
0.393464
0.398693
0.11634
0.389542
0.383007
0.401307
0.394771
0.397386
0.133333
0.126797
0.20915
0.138562
0.181699
0.129412
0.337255
0.351634
0.145098
0.346405
0.354248
0.290196
0.135948
0.35817
0.120261
0.11634
0.121569
0.108497
0.151634
0.132026
0.118954
0.113725
0.146405
0.117647
0.126797
0.179085
0.118954
0.122876
0.397386
0.396078
0.311111
0.379085
0.105882
0.359477
0.328105
0.103268
0.109804
0.411765
0.12549
0.103268
0.359477
0.14902
0.224837
0.143791
0.134641
0.341176
0.303268
0.117647
0.202614
0.12549
0.111111
0.109804
0.105882
0.101961
0.118954
0.121569
0.146405
0.130719
0.181699
0.350327
0.376471
0.128105
0.335948
0.388235
0.34902
0.350327
0.11634
0.11634
0.389542
0.439216
0.201307
0.350327
0.117647
0.112418
0.117647
0.115033
0.146405
0.428758
0.29281
0.397386
0.31634
0.381699
0.332026
0.343791
0.338562
0.339869
0.115033
0.317647
0.243137
0.11634
0.303268
0.113725
0.0993464
0.141176
0.10719
0.109804
0.105882
0.111111
0.368627
0.338562
0.328105
0.264052
0.333333
0.346405
0.321569
0.335948
0.108497
0.105882
0.338562
0.355556
0.30719
0.312418
0.207843
0.334641
0.311111
0.40915
0.305882
0.343791
0.30719
0.341176
0.318954
0.30719
0.326797
0.300654
0.355556
0.405229
0.360784
0.10719
0.355556
0.380392
0.27451
0.418301
0.373856
0.381699
0.381699
0.377778
0.406536
0.363399
0.406536
0.352941
0.35817
0.352941
0.355556
0.401307
0.326797
0.392157
0.304575
0.372549
0.313725
0.304575
0.414379
0.36732
0.30719
0.183007
0.304575
0.433987
0.301961
0.402614
0.320261
0.31634
0.277124
0.298039
0.296732
0.305882
0.261438
0.287582
0.304575
0.278431
0.328105
0.322876
0.309804
0.363399
0.143791
0.339869
0.162092
0.298039
0.176471
0.211765
0.19085
0.224837
0.288889
0.216993
0.243137
0.177778
0.326797
0.299346
0.320261
0.284967
0.160784
0.284967
0.281046
0.290196
0.278431
0.279739
0.294118
0.368627
0.269281
0.288889
0.330719
0.210458
0.279739
0.414379
0.32549
0.0980392
0.402614
0.0980392
0.0993464
0.300654
0.298039
0.096732
0.304575
0.166013
0.308497
0.332026
0.299346
0.134641
0.266667
0.30719
0.296732
0.271895
0.284967
0.101961
0.291503
0.197386
0.355556
0.300654
0.36732
0.305882
0.301961
0.298039
0.312418
0.298039
0.295425
0.35817
0.294118
0.267974
0.269281
0.266667
0.290196
0.267974
0.27451
0.262745
0.253595
0.176471
0.354248
0.172549
0.253595
0.155556
0.262745
0.159477
0.168627
0.14902
0.355556
0.176471
0.135948
0.150327
0.226144
0.265359
0.25098
0.291503
0.271895
0.223529
0.294118
0.386928
0.369935
0.381699
0.141176
0.346405
0.43268
0.329412
0.351634
0.266667
0.32549
0.132026
0.360784
0.452288
0.363399
0.377778
0.343791
0.312418
0.262745
0.267974
0.381699
0.115033
0.335948
0.351634
0.335948
0.351634
0.247059
0.368627
0.304575
0.360784
0.377778
0.130719
0.265359
0.305882
0.311111
0.389542
0.511111
0.375163
0.267974
0.301961
0.277124
0.213072
0.373856
0.448366
0.30719
0.291503
0.261438
0.373856
0.381699
0.381699
0.375163
0.339869
0.379085
0.384314
0.28366
0.308497
0.332026
0.381699
0.405229
0.456209
0.413072
0.394771
0.180392
0.258824
0.329412
0.308497
0.239216
0.355556
0.338562
0.342484
0.329412
0.347712
0.326797
0.304575
0.28366
0.291503
0.311111
0.299346
0.309804
0.194771
0.27451
0.294118
0.315033
0.318954
0.290196
0.267974
0.351634
0.298039
0.267974
0.311111
0.261438
0.296732
0.284967
0.343791
0.287582
0.273203
0.309804
0.337255
0.313725
0.321569
0.30719
0.311111
0.328105
0.15817
0.392157
0.309804
0.30719
0.28366
0.411765
0.156863
0.32549
0.142484
0.301961
0.262745
0.260131
0.258824
0.265359
0.288889
0.308497
0.341176
0.347712
0.330719
0.343791
0.345098
0.35817
0.335948
0.326797
0.30719
0.341176
0.290196
0.339869
0.332026
0.294118
0.335948
0.281046
0.269281
0.312418
0.346405
0.30719
0.32549
0.335948
0.373856
0.419608
0.393464
0.330719
0.373856
0.338562
0.321569
0.355556
0.414379
0.301961
0.142484
0.109804
0.347712
0.311111
0.0993464
0.192157
0.109804
0.100654
0.108497
0.108497
0.369935
0.36732
0.407843
0.35817
0.368627
0.379085
0.371242
0.350327
0.347712
0.36732
0.44183
0.377778
0.430065
0.115033
0.0993464
0.354248
0.0980392
0.100654
0.104575
0.0980392
0.103268
0.10719
0.354248
0.254902
0.460131
0.101961
0.426144
0.461438
0.411765
0.44183
0.347712
0.350327
0.354248
0.419608
0.341176
0.470588
0.403922
0.36732
0.30719
0.383007
0.28366
0.31634
0.335948
0.385621
0.330719
0.444444
0.410458
0.326797
0.368627
0.332026
0.320261
0.426144
0.308497
0.386928
0.328105
0.415686
0.350327
0.309804
0.304575
0.368627
0.321569
0.342484
0.335948
0.342484
0.415686
0.318954
0.335948
0.318954
0.321569
0.351634
0.416993
0.364706
0.301961
0.31634
0.402614
0.34902
0.392157
0.394771
0.332026
0.401307
0.32549
0.342484
0.296732
0.420915
0.4
0.230065
0.287582
0.339869
0.290196
0.29281
0.308497
0.298039
0.296732
0.401307
0.311111
0.29281
0.313725
0.40915
0.312418
0.313725
0.363399
0.347712
0.294118
0.32549
0.411765
0.324183
0.312418
0.332026
0.318954
0.320261
0.413072
0.338562
0.294118
0.329412
0.330719
0.32549
0.32549
0.343791
0.393464
0.362092
0.300654
0.320261
0.377778
0.329412
0.30719
0.355556
0.380392
0.315033
0.27451
0.338562
0.329412
0.405229
0.311111
0.34902
0.300654
0.282353
0.294118
0.308497
0.339869
0.281046
0.278431
0.294118
0.176471
0.248366
0.260131
0.279739
0.152941
0.273203
0.245752
0.295425
0.284967
0.273203
0.29281
0.296732
0.27451
0.290196
0.330719
0.299346
0.257516
0.233987
0.150327
0.266667
0.329412
0.248366
0.163399
0.286275
0.211765
0.163399
0.24183
0.278431
0.277124
0.270588
0.29281
0.350327
0.295425
0.324183
0.300654
0.282353
0.321569
0.299346
0.364706
0.308497
0.303268
0.401307
0.32549
0.356863
0.341176
0.445752
0.275817
0.300654
0.271895
0.321569
0.270588
0.245752
0.25098
0.30719
0.244444
0.501961
0.154248
0.488889
0.231373
0.124183
0.146405
0.294118
0.184314
0.271895
0.281046
0.329412
0.175163
0.237908
0.118954
0.270588
0.118954
0.210458
0.156863
0.16732
0.118954
0.192157
0.14902
0.45098
0.517647
0.135948
0.115033
0.124183
0.51634
0.233987
0.428758
0.521569
0.175163
0.186928
0.52549
0.529412
0.513725
0.532026
0.524183
0.501961
0.471895
0.511111
0.49281
0.515033
0.413072
0.326797
0.376471
0.413072
0.465359
0.505882
0.445752
0.51634
0.215686
0.389542
0.512418
0.403922
0.517647
0.469281
0.542484
0.499346
0.530719
0.422222
0.328105
0.435294
0.379085
0.501961
0.304575
0.440523
0.337255
0.236601
0.196078
0.329412
0.162092
0.343791
0.343791
0.315033
0.326797
0.29281
0.278431
0.341176
0.265359
0.173856
0.145098
0.257516
0.295425
0.372549
0.266667
0.366013
0.147712
0.352941
0.352941
0.318954
0.326797
0.379085
0.135948
0.279739
0.134641
0.240523
0.294118
0.213072
0.103268
0.368627
0.376471
0.288889
0.337255
0.290196
0.23268
0.29281
0.294118
0.403922
0.454902
0.0954248
0.104575
0.154248
0.0954248
0.394771
0.211765
0.235294
0.103268
0.337255
0.254902
0.444444
0.118954
0.11634
0.154248
0.096732
0.237908
0.460131
0.428758
0.419608
0.552941
0.375163
0.39085
0.392157
0.427451
0.467974
0.270588
0.384314
0.330719
0.416993
0.398693
0.14902
0.10719
0.366013
0.355556
0.386928
0.35817
0.418301
0.346405
0.385621
0.381699
0.437908
0.386928
0.39085
0.397386
0.397386
0.385621
0.398693
0.392157
0.411765
0.118954
0.39085
0.419608
0.393464
0.403922
0.388235
0.337255
0.377778
0.35817
0.380392
0.0954248
0.159477
0.100654
0.108497
0.096732
0.108497
0.0993464
0.117647
0.115033
0.105882
0.112418
0.168627
0.0993464
0.252288
0.100654
0.096732
0.104575
0.0941176
0.096732
0.0954248
0.096732
0.0928105
0.113725
0.100654
0.239216
0.366013
0.177778
0.0993464
0.0954248
0.096732
0.299346
0.096732
0.363399
0.458824
0.359477
0.108497
0.415686
0.356863
0.362092
0.359477
0.356863
0.329412
0.411765
0.126797
0.35817
0.377778
0.346405
0.29281
0.366013
0.427451
0.407843
0.339869
0.394771
0.384314
0.433987
0.422222
0.350327
0.296732
0.359477
0.388235
0.338562
0.373856
0.386928
0.305882
0.32549
0.388235
0.44183
0.413072
0.456209
0.405229
0.360784
0.410458
0.160784
0.154248
0.315033
0.264052
0.159477
0.326797
0.436601
0.337255
0.388235
0.393464
0.164706
0.220915
0.203922
0.198693
0.308497
0.160784
0.155556
0.15817
0.392157
0.150327
0.185621
0.376471
0.160784
0.338562
0.265359
0.142484
0.210458
0.152941
0.154248
0.10719
0.377778
0.130719
0.12549
0.177778
0.171242
0.194771
0.185621
0.172549
0.389542
0.43268
0.10719
0.112418
0.155556
0.113725
0.150327
0.402614
0.403922
0.128105
0.142484
0.168627
0.120261
0.184314
0.164706
0.138562
0.410458
0.162092
0.371242
0.155556
0.401307
0.392157
0.380392
0.396078
0.394771
0.176471
0.360784
0.142484
0.416993
0.427451
0.162092
0.139869
0.155556
0.151634
0.202614
0.407843
0.112418
0.44183
0.118954
0.138562
0.443137
0.448366
0.449673
0.452288
0.482353
0.467974
0.505882
0.50719
0.496732
0.484967
0.478431
0.498039
0.466667
0.436601
0.481046
0.501961
0.48366
0.443137
0.416993
0.11634
0.312418
0.11634
0.12549
0.478431
0.216993
0.137255
0.448366
0.470588
0.14902
0.436601
0.473203
0.481046
0.445752
0.486275
0.326797
0.435294
0.433987
0.177778
0.473203
0.447059
0.437908
0.397386
0.419608
0.129412
0.479739
0.416993
0.424837
0.419608
0.235294
0.377778
0.152941
0.135948
0.143791
0.25098
0.142484
0.39085
0.105882
0.143791
0.177778
0.112418
0.247059
0.137255
0.147712
0.301961
0.334641
0.411765
0.457516
0.388235
0.264052
0.243137
0.239216
0.407843
0.128105
0.130719
0.117647
0.396078
0.385621
0.405229
0.388235
0.416993
0.339869
0.396078
0.385621
0.375163
0.396078
0.422222
0.414379
0.467974
0.418301
0.420915
0.414379
0.196078
0.379085
0.311111
0.458824
0.448366
0.479739
0.443137
0.443137
0.415686
0.457516
0.773856
0.452288
0.462745
0.479739
0.479739
0.626144
0.456209
0.466667
0.471895
0.447059
0.439216
0.453595
0.633987
0.481046
0.462745
0.487582
0.624837
0.48366
0.470588
0.482353
0.775163
0.487582
0.462745
0.478431
0.443137
0.479739
0.475817
0.465359
0.768627
0.477124
0.482353
0.478431
0.436601
0.423529
0.448366
0.500654
0.40915
0.452288
0.467974
0.470588
0.402614
0.373856
0.383007
0.39085
0.403922
0.398693
0.386928
0.386928
0.419608
0.388235
0.39085
0.396078
0.394771
0.384314
0.397386
0.416993
0.411765
0.414379
0.486275
0.460131
0.488889
0.465359
0.454902
0.381699
0.368627
0.394771
0.359477
0.364706
0.355556
0.355556
0.356863
0.383007
0.351634
0.330719
0.388235
0.379085
0.335948
0.341176
0.368627
0.360784
0.352941
0.360784
0.364706
0.326797
0.329412
0.343791
0.352941
0.322876
0.467974
0.341176
0.335948
0.332026
0.356863
0.345098
0.359477
0.34902
0.388235
0.351634
0.352941
0.364706
0.375163
0.363399
0.377778
0.356863
0.350327
0.335948
0.364706
0.389542
0.376471
0.379085
0.383007
0.381699
0.398693
0.364706
0.406536
0.388235
0.401307
0.380392
0.392157
0.392157
0.393464
0.363399
0.385621
0.328105
0.343791
0.386928
0.39085
0.389542
0.383007
0.386928
0.397386
0.384314
0.396078
0.394771
0.373856
0.39085
0.394771
0.363399
0.341176
0.356863
0.36732
0.34902
0.369935
0.363399
0.372549
0.309804
0.34902
0.188235
0.337255
0.368627
0.373856
0.366013
0.339869
0.121569
0.345098
0.138562
0.239216
0.150327
0.248366
0.383007
0.437908
0.117647
0.129412
0.126797
0.12549
0.112418
0.291503
0.237908
0.154248
0.334641
0.12549
0.363399
0.16732
0.160784
0.368627
0.356863
0.143791
0.198693
0.122876
0.317647
0.359477
0.354248
0.407843
0.156863
0.315033
0.301961
0.354248
0.372549
0.354248
0.356863
0.394771
0.398693
0.362092
0.35817
0.373856
0.354248
0.376471
0.368627
0.413072
0.372549
0.366013
0.385621
0.396078
0.332026
0.388235
0.401307
0.381699
0.287582
0.393464
0.163399
0.369935
0.185621
0.171242
0.175163
0.162092
0.332026
0.407843
0.172549
0.398693
0.415686
0.397386
0.416993
0.373856
0.419608
0.411765
0.369935
0.405229
0.369935
0.366013
0.392157
0.368627
0.405229
0.388235
0.411765
0.388235
0.4
0.394771
0.397386
0.364706
0.371242
0.372549
0.392157
0.397386
0.405229
0.386928
0.420915
0.405229
0.394771
0.388235
0.419608
0.427451
0.486275
0.478431
0.419608
0.435294
0.431373
0.431373
0.445752
0.464052
0.433987
0.439216
0.426144
0.431373
0.424837
0.431373
0.414379
0.424837
0.411765
0.384314
0.414379
0.397386
0.179085
0.397386
0.172549
0.396078
0.236601
0.410458
0.393464
0.416993
0.397386
0.392157
0.440523
0.491503
0.413072
0.440523
0.407843
0.415686
0.431373
0.465359
0.40915
0.406536
0.413072
0.402614
0.14902
0.384314
0.405229
0.422222
0.206536
0.341176
0.141176
0.160784
0.326797
0.132026
0.12549
0.117647
0.23268
0.252288
0.20915
0.334641
0.115033
0.214379
0.411765
0.379085
0.36732
0.36732
0.329412
0.160784
0.362092
0.403922
0.364706
0.372549
0.130719
0.12549
0.321569
0.36732
0.35817
0.342484
0.35817
0.154248
0.366013
0.346405
0.362092
0.366013
0.393464
0.411765
0.40915
0.396078
0.385621
0.386928
0.401307
0.422222
0.381699
0.403922
0.471895
0.643137
0.411765
0.433987
0.491503
0.622222
0.407843
0.431373
0.48366
0.470588
0.47451
0.413072
0.415686
0.366013
0.402614
0.383007
0.416993
0.402614
0.411765
0.39085
0.396078
0.419608
0.414379
0.444444
0.453595
0.460131
0.461438
0.465359
0.45098
0.457516
0.433987
0.464052
0.501961
0.403922
0.436601
0.393464
0.414379
0.406536
0.423529
0.431373
0.435294
0.413072
0.4
0.39085
0.402614
0.422222
0.418301
0.405229
0.39085
0.39085
0.40915
0.397386
0.381699
0.393464
0.39085
0.406536
0.393464
0.405229
0.397386
0.411765
0.396078
0.364706
0.403922
0.354248
0.372549
0.342484
0.359477
0.373856
0.362092
0.371242
0.393464
0.372549
0.373856
0.359477
0.371242
0.360784
0.211765
0.352941
0.145098
0.150327
0.360784
0.142484
0.271895
0.346405
0.194771
0.128105
0.145098
0.124183
0.394771
0.118954
0.252288
0.117647
0.11634
0.115033
0.160784
0.219608
0.305882
0.372549
0.15817
0.392157
0.115033
0.40915
0.362092
0.181699
0.380392
0.180392
0.135948
0.364706
0.143791
0.264052
0.150327
0.132026
0.133333
0.385621
0.117647
0.130719
0.124183
0.356863
0.146405
0.171242
0.226144
0.216993
0.222222
0.239216
0.261438
0.121569
0.145098
0.124183
0.317647
0.117647
0.117647
0.206536
0.121569
0.115033
0.108497
0.122876
0.11634
0.130719
0.121569
0.121569
0.139869
0.132026
0.162092
0.129412
0.138562
0.122876
0.143791
0.128105
0.112418
0.11634
0.130719
0.147712
0.11634
0.186928
0.12549
0.118954
0.100654
0.128105
0.124183
0.146405
0.142484
0.205229
0.134641
0.317647
0.20915
0.206536
0.350327
0.275817
0.240523
0.343791
0.337255
0.335948
0.332026
0.159477
0.338562
0.27451
0.328105
0.342484
0.124183
0.124183
0.132026
0.253595
0.130719
0.346405
0.20915
0.342484
0.282353
0.12549
0.12549
0.118954
0.126797
0.25098
0.12549
0.132026
0.12549
0.129412
0.216993
0.124183
0.132026
0.175163
0.162092
0.143791
0.137255
0.270588
0.228758
0.146405
0.230065
0.339869
0.403922
0.130719
0.171242
0.117647
0.121569
0.113725
0.137255
0.12549
0.117647
0.134641
0.128105
0.122876
0.126797
0.269281
0.122876
0.12549
0.30719
0.10719
0.105882
0.309804
0.105882
0.386928
0.118954
0.405229
0.343791
0.105882
0.118954
0.299346
0.36732
0.162092
0.104575
0.145098
0.105882
0.10719
0.104575
0.104575
0.359477
0.31634
0.203922
0.333333
0.372549
0.363399
0.34902
0.228758
0.105882
0.240523
0.108497
0.105882
0.137255
0.108497
0.103268
0.101961
0.103268
0.118954
0.108497
0.103268
0.109804
0.108497
0.100654
0.109804
0.105882
0.113725
0.109804
0.10719
0.108497
0.10719
0.11634
0.108497
0.109804
0.118954
0.120261
0.10719
0.111111
0.267974
0.126797
0.143791
0.112418
0.109804
0.109804
0.326797
0.126797
0.166013
0.351634
0.206536
0.278431
0.111111
0.105882
0.145098
0.132026
0.111111
0.105882
0.108497
0.120261
0.115033
0.113725
0.118954
0.113725
0.337255
0.244444
0.373856
0.12549
0.181699
0.118954
0.237908
0.11634
0.108497
0.124183
0.362092
0.124183
0.445752
0.194771
0.299346
0.379085
0.428758
0.184314
0.44183
0.315033
0.290196
0.313725
0.354248
0.359477
0.355556
0.332026
0.317647
0.333333
0.470588
0.354248
0.467974
0.304575
0.388235
0.393464
0.428758
0.345098
0.363399
0.352941
0.380392
0.375163
0.436601
0.426144
0.381699
0.403922
0.337255
0.359477
0.113725
0.236601
0.410458
0.388235
0.351634
0.121569
0.403922
0.351634
0.112418
0.113725
0.10719
0.10719
0.11634
0.146405
0.113725
0.115033
0.10719
0.112418
0.328105
0.320261
0.36732
0.418301
0.198693
0.213072
0.14902
0.265359
0.312418
0.36732
0.351634
0.32549
0.419608
0.418301