# vtk DataFile Version 1.0
Unstructured Grid Example
ASCII

DATASET UNSTRUCTURED_GRID
POINTS 4301 float
297 358 0
51 324 0
307 431 0
358 357 0
190 322 0
0 269 0
0 263 0
99 472 0
87 488 0
42 501 0
390 390 0
251 393 0
476 384 0
195 346 0
442 326 0
258 263 0
71 232 0
11 23 0
24 308 0
90 305 0
133 257 0
232 308 0
137 385 0
218 429 0
104 314 0
101 362 0
59 377 0
61 368 0
36 475 0
92 464 0
33 463 0
0 476 0
46 495 0
71 505 0
172 507 0
118 508 0
140 492 0
208 485 0
109 481 0
142 451 0
124 449 0
260 403 0
286 384 0
299 394 0
247 420 0
299 429 0
309 445 0
344 432 0
438 513 0
335 422 0
371 407 0
463 394 0
485 388 0
451 392 0
348 302 0
364 365 0
305 380 0
263 367 0
255 343 0
236 362 0
270 277 0
260 239 0
272 292 0
406 133 0
468 272 0
434 292 0
440 293 0
23 264 0
5 1 0
10 273 0
5 281 0
0 303 0
10 310 0
110 277 0
124 281 0
26 259 0
57 240 0
125 203 0
121 151 0
165 187 0
157 223 0
136 216 0
165 175 0
199 176 0
223 107 0
225 246 0
234 314 0
221 313 0
206 303 0
138 242 0
136 248 0
139 253 0
197 364 0
116 328 0
205 362 0
215 336 0
225 341 0
228 320 0
212 407 0
232 406 0
211 418 0
174 397 0
136 438 0
148 401 0
59 382 0
112 439 0
60 374 0
81 342 0
75 341 0
66 341 0
43 328 0
42 323 0
48 326 0
38 334 0
46 341 0
6 362 0
47 371 0
42 441 0
16 466 0
16 448 0
54 465 0
86 462 0
88 442 0
51 474 0
86 482 0
63 484 0
50 481 0
42 467 0
28 476 0
33 490 0
4 489 0
12 489 0
27 493 0
42 498 0
29 503 0
83 507 0
73 510 0
45 501 0
86 497 0
56 497 0
87 493 0
66 488 0
131 508 0
98 502 0
154 501 0
101 509 0
112 513 0
156 513 0
161 505 0
174 510 0
176 513 0
189 504 0
173 502 0
207 498 0
180 496 0
212 480 0
151 476 0
150 497 0
131 475 0
128 496 0
124 463 0
100 468 0
88 455 0
137 463 0
140 466 0
216 466 0
224 446 0
241 369 0
238 369 0
253 369 0
310 369 0
325 366 0
317 363 0
309 385 0
323 386 0
286 387 0
258 390 0
236 380 0
236 377 0
248 408 0
288 394 0
274 394 0
234 418 0
294 422 0
261 437 0
326 412 0
310 456 0
324 425 0
325 405 0
325 398 0
318 396 0
312 398 0
336 408 0
396 407 0
356 409 0
374 416 0
407 421 0
330 506 0
466 502 0
457 513 0
512 509 0
455 449 0
447 419 0
512 419 0
495 398 0
510 400 0
489 404 0
409 403 0
365 407 0
364 399 0
329 386 0
327 393 0
331 397 0
335 368 0
340 369 0
337 370 0
348 392 0
361 354 0
459 360 0
365 344 0
364 341 0
440 334 0
368 333 0
344 334 0
336 316 0
351 339 0
346 346 0
342 348 0
342 361 0
302 359 0
336 363 0
287 358 0
285 361 0
273 357 0
281 352 0
259 336 0
249 317 0
237 335 0
323 346 0
327 337 0
332 332 0
333 329 0
261 297 0
278 284 0
251 271 0
250 275 0
246 302 0
240 297 0
258 177 0
258 250 0
264 246 0
270 205 0
276 69 0
281 236 0
287 40 0
370 57 0
355 48 0
348 144 0
321 153 0
348 315 0
330 274 0
457 303 0
489 314 0
445 314 0
512 247 0
512 145 0
443 1 0
374 48 0
2 261 0
0 234 0
4 241 0
7 255 0
17 257 0
24 253 0
16 270 0
20 277 0
19 270 0
8 266 0
4 268 0
2 279 0
11 291 0
0 284 0
2 282 0
3 296 0
8 297 0
12 317 0
18 294 0
18 320 0
14 293 0
20 291 0
12 283 0
15 280 0
21 280 0
36 286 0
26 284 0
27 290 0
45 290 0
35 297 0
40 316 0
68 306 0
69 315 0
64 318 0
48 304 0
46 298 0
53 289 0
65 276 0
71 282 0
41 260 0
40 269 0
29 266 0
33 283 0
36 1 0
30 208 0
27 243 0
45 245 0
50 256 0
69 255 0
73 242 0
111 196 0
91 174 0
93 242 0
80 255 0
105 260 0
83 272 0
173 230 0
170 243 0
146 245 0
147 223 0
141 219 0
133 211 0
188 222 0
185 195 0
190 228 0
204 227 0
229 228 0
232 209 0
228 268 0
235 269 0
205 247 0
202 239 0
185 229 0
194 234 0
194 251 0
236 308 0
235 277 0
238 289 0
238 286 0
241 289 0
243 287 0
242 308 0
243 315 0
236 324 0
228 324 0
226 317 0
225 312 0
116 312 0
214 317 0
118 297 0
119 288 0
124 276 0
120 278 0
106 297 0
86 283 0
102 282 0
100 299 0
82 301 0
105 307 0
91 315 0
161 352 0
107 327 0
113 356 0
140 361 0
192 362 0
112 364 0
215 352 0
200 359 0
212 360 0
215 342 0
197 338 0
211 335 0
230 346 0
229 337 0
231 335 0
232 340 0
234 338 0
243 331 0
237 349 0
239 360 0
236 346 0
233 350 0
222 349 0
229 353 0
217 364 0
230 373 0
227 370 0
226 374 0
231 368 0
239 379 0
244 373 0
236 384 0
237 394 0
233 391 0
230 392 0
220 392 0
229 382 0
212 392 0
209 394 0
204 392 0
203 384 0
219 375 0
214 375 0
192 377 0
156 367 0
107 378 0
151 381 0
181 387 0
153 394 0
198 383 0
77 378 0
81 377 0
88 377 0
68 378 0
63 381 0
62 387 0
66 364 0
64 375 0
60 371 0
71 376 0
81 367 0
87 373 0
96 350 0
95 362 0
98 345 0
92 334 0
103 329 0
87 328 0
59 345 0
85 333 0
82 348 0
71 350 0
76 362 0
79 356 0
62 362 0
44 332 0
52 335 0
48 335 0
35 331 0
59 326 0
45 325 0
23 334 0
0 324 0
0 328 0
30 337 0
27 341 0
32 342 0
0 343 0
23 346 0
22 353 0
50 343 0
50 353 0
58 349 0
58 352 0
57 373 0
57 365 0
42 363 0
32 371 0
0 356 0
17 359 0
0 373 0
25 442 0
23 418 0
9 401 0
12 452 0
0 460 0
19 460 0
49 457 0
44 459 0
48 442 0
43 433 0
43 428 0
43 406 0
60 408 0
57 419 0
64 403 0
67 413 0
80 402 0
83 396 0
83 432 0
89 438 0
95 453 0
77 431 0
70 461 0
62 443 0
68 453 0
67 467 0
66 461 0
59 465 0
70 467 0
76 462 0
81 467 0
76 475 0
80 476 0
74 470 0
73 475 0
58 474 0
56 470 0
44 472 0
48 478 0
40 475 0
26 468 0
24 465 0
22 462 0
16 470 0
14 463 0
20 467 0
0 470 0
0 473 0
3 473 0
12 475 0
29 482 0
15 483 0
26 479 0
32 481 0
39 484 0
39 481 0
32 496 0
40 494 0
33 493 0
22 490 0
18 486 0
9 494 0
11 499 0
7 496 0
3 503 0
12 507 0
0 509 0
9 513 0
41 509 0
32 513 0
34 509 0
30 506 0
26 505 0
21 504 0
39 501 0
55 500 0
48 500 0
76 508 0
53 509 0
67 513 0
73 513 0
85 510 0
79 511 0
88 507 0
90 505 0
81 504 0
76 505 0
89 498 0
84 492 0
93 489 0
83 495 0
75 488 0
46 491 0
43 495 0
47 481 0
46 488 0
48 484 0
56 487 0
57 480 0
96 480 0
74 484 0
114 477 0
100 477 0
110 472 0
121 473 0
130 471 0
133 470 0
143 487 0
150 480 0
141 479 0
136 480 0
133 478 0
101 482 0
103 504 0
97 490 0
123 504 0
129 512 0
109 513 0
115 513 0
140 510 0
146 513 0
142 513 0
142 504 0
136 501 0
139 489 0
132 493 0
152 509 0
181 503 0
162 512 0
160 513 0
172 513 0
150 513 0
187 507 0
216 513 0
209 513 0
195 507 0
184 504 0
225 502 0
164 500 0
191 498 0
203 493 0
161 499 0
158 496 0
150 494 0
158 488 0
152 470 0
164 482 0
165 487 0
181 488 0
203 481 0
189 493 0
233 454 0
195 470 0
188 443 0
217 442 0
198 436 0
227 438 0
151 451 0
150 437 0
141 455 0
145 457 0
149 457 0
139 461 0
105 463 0
123 457 0
137 455 0
104 467 0
101 464 0
99 461 0
100 434 0
98 444 0
116 441 0
120 451 0
122 443 0
123 435 0
139 444 0
139 417 0
166 404 0
170 416 0
134 424 0
102 420 0
98 411 0
182 395 0
112 396 0
159 401 0
191 403 0
211 399 0
216 396 0
219 401 0
220 404 0
228 399 0
224 404 0
224 408 0
219 425 0
230 421 0
243 417 0
238 424 0
241 420 0
239 417 0
241 409 0
235 403 0
241 403 0
248 360 0
250 358 0
257 361 0
251 362 0
257 369 0
254 372 0
262 371 0
272 371 0
259 371 0
269 366 0
266 364 0
265 357 0
299 362 0
276 362 0
306 360 0
312 358 0
322 357 0
314 359 0
311 365 0
319 369 0
300 372 0
298 364 0
293 370 0
283 372 0
277 370 0
295 378 0
290 379 0
285 380 0
308 377 0
312 377 0
316 373 0
292 381 0
314 381 0
317 383 0
290 389 0
288 391 0
283 390 0
272 382 0
267 386 0
264 387 0
266 381 0
275 375 0
263 375 0
261 382 0
250 378 0
248 383 0
245 388 0
251 389 0
255 390 0
261 388 0
245 394 0
245 391 0
260 394 0
272 391 0
283 395 0
292 396 0
289 399 0
292 402 0
277 401 0
258 396 0
253 399 0
248 398 0
247 413 0
248 404 0
252 404 0
250 414 0
247 416 0
247 437 0
289 504 0
293 513 0
281 447 0
293 416 0
286 407 0
259 414 0
255 414 0
299 423 0
305 420 0
307 426 0
294 428 0
302 483 0
307 439 0
310 430 0
313 446 0
316 425 0
320 425 0
317 422 0
319 418 0
314 417 0
313 412 0
321 406 0
313 409 0
311 402 0
298 406 0
297 413 0
308 398 0
303 391 0
295 398 0
308 402 0
315 399 0
319 391 0
320 394 0
361 391 0
355 395 0
364 396 0
400 391 0
423 396 0
435 393 0
401 404 0
418 404 0
426 402 0
399 397 0
378 399 0
353 403 0
327 422 0
332 416 0
334 427 0
334 476 0
329 513 0
329 494 0
414 417 0
380 429 0
374 439 0
351 413 0
397 412 0
337 412 0
414 404 0
454 415 0
464 414 0
438 438 0
483 452 0
478 503 0
455 463 0
492 482 0
505 504 0
503 431 0
496 426 0
512 412 0
509 408 0
473 400 0
493 403 0
466 400 0
450 399 0
436 401 0
444 399 0
440 393 0
438 396 0
477 398 0
480 389 0
493 394 0
502 392 0
512 394 0
472 384 0
481 385 0
504 385 0
508 384 0
491 382 0
498 380 0
372 375 0
448 374 0
377 378 0
464 380 0
416 387 0
425 388 0
359 383 0
362 382 0
351 383 0
341 381 0
332 384 0
338 383 0
348 374 0
340 376 0
328 377 0
352 376 0
353 379 0
355 381 0
367 374 0
351 364 0
352 373 0
350 371 0
346 372 0
344 365 0
342 367 0
326 357 0
323 361 0
327 360 0
330 363 0
331 359 0
333 360 0
351 359 0
353 361 0
377 357 0
371 362 0
354 364 0
359 368 0
378 365 0
474 366 0
407 371 0
512 373 0
416 364 0
437 361 0
512 361 0
452 359 0
456 354 0
465 355 0
437 351 0
427 354 0
365 356 0
356 352 0
367 338 0
360 350 0
414 346 0
453 335 0
502 342 0
474 339 0
486 324 0
484 331 0
466 324 0
498 315 0
459 312 0
512 300 0
402 309 0
443 303 0
453 325 0
367 326 0
449 326 0
357 327 0
424 334 0
354 331 0
349 331 0
354 328 0
355 323 0
345 320 0
348 320 0
342 319 0
336 301 0
343 324 0
339 327 0
324 330 0
343 331 0
340 333 0
339 340 0
344 337 0
347 337 0
353 344 0
354 336 0
349 353 0
351 355 0
345 354 0
342 352 0
324 352 0
334 352 0
331 347 0
311 353 0
317 354 0
309 351 0
313 351 0
318 347 0
307 343 0
298 350 0
290 346 0
304 344 0
306 352 0
298 355 0
295 356 0
267 354 0
288 350 0
273 354 0
256 350 0
252 356 0
250 354 0
263 345 0
249 349 0
260 339 0
269 346 0
276 344 0
277 349 0
286 346 0
269 335 0
277 321 0
267 332 0
265 335 0
251 321 0
249 337 0
251 307 0
247 307 0
261 321 0
266 311 0
271 301 0
276 303 0
278 315 0
299 329 0
282 313 0
304 324 0
302 331 0
296 332 0
281 337 0
317 336 0
314 336 0
305 339 0
314 333 0
312 323 0
317 319 0
313 319 0
284 280 0
278 298 0
287 293 0
274 238 0
301 237 0
349 232 0
273 245 0
259 226 0
264 266 0
261 276 0
267 283 0
267 287 0
259 290 0
259 300 0
257 293 0
249 289 0
245 285 0
248 295 0
248 272 0
245 273 0
248 267 0
252 284 0
253 275 0
258 280 0
259 274 0
288 140 0
294 114 0
281 171 0
274 162 0
269 215 0
274 179 0
274 1 0
254 72 0
286 62 0
296 85 0
298 1 0
300 76 0
321 88 0
307 87 0
306 16 0
314 107 0
315 115 0
321 222 0
324 124 0
323 140 0
347 134 0
323 96 0
332 95 0
330 37 0
[...]
CELL_DATA 8392
COLOR_SCALARS ColorSpace 1
0.275817
0.396078
0.415686
0.411765
0.254902
0.359477
0.320261
0.420915
0.4
0.10719
0.287582
0.339869
0.385621
0.320261
0.266667
0.31634
0.104575
0.4
0.332026
0.117647
0.354248
0.132026
0.329412
0.362092
0.398693
0.317647
0.256209
0.458824
0.317647
0.120261
0.456209
0.393464
0.305882
0.360784
0.31634
0.334641
0.403922
0.260131
0.214379
0.254902
0.356863
0.347712
0.305882
0.100654
0.19085
0.109804
0.23268
0.322876
0.169935
0.168627
0.301961
0.271895
0.224837
0.301961
0.108497
0.35817
0.296732
0.281046
0.213072
0.202614
0.377778
0.177778
0.393464
0.413072
0.388235
0.385621
0.347712
0.309804
0.413072
0.315033
0.333333
0.364706
0.270588
0.288889
0.420915
0.312418
0.258824
0.315033
0.392157
0.351634
0.343791
0.290196
0.424837
0.309804
0.402614
0.262745
0.299346
0.29281
0.155556
0.301961
0.322876
0.177778
0.406536
0.277124
0.220915
0.345098
0.345098
0.313725
0.39085
0.262745
0.321569
0.24183
0.252288
0.447059
0.389542
0.311111
0.333333
0.424837
0.338562
0.372549
0.376471
0.31634
0.354248
0.112418
0.258824
0.15817
0.169935
0.35817
0.415686
0.509804
0.437908
0.173856
0.401307
0.385621
0.120261
0.270588
0.142484
0.320261
0.352941
0.328105
0.437908
0.435294
0.322876
0.303268
0.330719
0.303268
0.304575
0.313725
0.372549
0.279739
0.19085
0.120261
0.406536
0.384314
0.326797
0.360784
0.359477
0.269281
0.620915
0.371242
0.346405
0.40915
0.342484
0.301961
0.373856
0.235294
0.362092
0.453595
0.152941
0.420915
0.384314
0.262745
0.401307
0.338562
0.338562
0.384314
0.449673
0.448366
0.193464
0.364706
0.120261
0.4
0.11634
0.122876
0.31634
0.186928
0.394771
0.265359
0.115033
0.411765
0.330719
0.332026
0.410458
0.363399
0.383007
0.179085
0.372549
0.414379
0.352941
0.35817
0.312418
0.401307
0.287582
0.355556
0.369935
0.193464
0.393464
0.347712
0.10719
0.360784
0.126797
0.309804
0.301961
0.308497
0.300654
0.410458
0.352941
0.34902
0.368627
0.381699
0.30719
0.311111
0.279739
0.333333
0.308497
0.320261
0.30719
0.298039
0.284967
0.300654
0.337255
0.291503
0.278431
0.299346
0.284967
0.398693
0.220915
0.156863
0.143791
0.10719
0.253595
0.304575
0.384314
0.278431
0.401307
0.279739
0.414379
0.312418
0.384314
0.359477
0.262745
0.388235
0.298039
0.318954
0.214379
0.36732
0.24183
0.137255
0.23268
0.371242
0.278431
0.39085
0.443137
0.330719
0.352941
0.313725
0.28366
0.256209
0.264052
0.345098
0.430065
0.312418
0.364706
0.334641
0.257516
0.270588
0.303268
0.32549
0.346405
0.347712
0.273203
0.218301
0.346405
0.198693
0.295425
0.290196
0.271895
0.248366
0.345098
0.379085
0.329412
0.415686
0.414379
0.279739
0.32549
0.30719
0.300654
0.305882
0.154248
0.43268
0.281046
0.305882
0.291503
0.304575
0.315033
0.294118
0.214379
0.256209
0.315033
0.337255
0.398693
0.260131
0.295425
0.28366
0.275817
0.301961
0.315033
0.475817
0.373856
0.364706
0.350327
0.278431
0.31634
0.299346
0.308497
0.28366
0.301961
0.300654
0.28366
0.328105
0.466667
0.369935
0.326797
0.39085
0.313725
0.334641
0.315033
0.32549
0.410458
0.312418
0.458824
0.36732
0.375163
0.270588
0.312418
0.281046
0.318954
0.355556
0.309804
0.335948
0.317647
0.386928
0.326797
0.380392
0.386928
0.300654
0.364706
0.341176
0.31634
0.32549
0.291503
0.304575
0.317647
0.278431
0.300654
0.275817
0.359477
0.312418
0.145098
0.281046
0.313725
0.296732
0.333333
0.373856
0.304575
0.329412
0.282353
0.366013
0.386928
0.290196
0.43268
0.27451
0.294118
0.270588
0.369935
0.346405
0.257516
0.152941
0.535948
0.166013
0.216993
0.207843
0.491503
0.11634
0.245752
0.50719
0.248366
0.338562
0.342484
0.312418
0.436601
0.419608
0.52549
0.498039
0.583007
0.512418
0.509804
0.332026
0.254902
0.308497
0.224837
0.330719
0.291503
0.371242
0.281046
0.34902
0.352941
0.45098
0.343791
0.322876
0.32549
0.351634
0.308497
0.303268
0.309804
0.321569
0.305882
0.35817
0.271895
0.424837
0.164706
0.413072
0.100654
0.431373
0.101961
0.304575
0.290196
0.420915
0.205229
0.362092
0.410458
0.380392
0.379085
0.428758
0.359477
0.337255
0.466667
0.318954
0.355556
0.300654
0.338562
0.338562
0.371242
0.30719
0.4
0.337255
0.456209
0.355556
0.426144
0.338562
0.396078
0.398693
0.335948
0.4
0.373856
0.368627
0.333333
0.335948
0.394771
0.34902
0.366013
0.439216
0.383007
0.470588
0.401307
0.326797
0.364706
0.16732
0.490196
0.371242
0.345098
0.359477
0.351634
0.147712
0.346405
0.386928
0.318954
0.113725
0.320261
0.122876
0.366013
0.350327
0.287582
0.171242
0.284967
0.375163
0.351634
0.458824
0.275817
0.222222
0.216993
0.461438
0.503268
0.410458
0.277124
0.775163
0.303268
0.120261
0.0941176
0.171242
0.129412
0.330719
0.346405
0.278431
0.416993
0.375163
0.372549
0.308497
0.329412
0.203922
0.278431
0.394771
0.406536
0.40915
0.464052
0.40915
0.362092
0.345098
0.471895
0.339869
0.407843
0.350327
0.321569
0.326797
0.371242
0.369935
0.34902
0.320261
0.384314
0.411765
0.332026
0.337255
0.43268
0.364706
0.311111
0.312418
0.308497
0.326797
0.267974
0.271895
0.315033
0.309804
0.313725
0.308497
0.30719
0.304575
0.267974
0.270588
0.220915
0.28366
0.304575
0.286275
0.236601
0.303268
0.27451
0.300654
0.303268
0.30719
0.311111
0.347712
0.313725
0.402614
0.309804
0.356863
0.308497
0.36732
0.392157
0.309804
0.300654
0.337255
0.304575
0.43268
0.362092
0.30719
0.352941
0.383007
0.320261
0.397386
0.351634
0.347712
0.343791
0.304575
0.355556
0.334641
0.383007
0.373856
0.359477
0.379085
0.34902
0.389542
0.383007
0.381699
0.356863
0.313725
0.385621
0.392157
0.338562
0.375163
0.343791
0.496732
0.430065
0.458824
0.366013
0.397386
0.375163
0.407843
0.381699
0.388235
0.359477
0.389542
0.332026
0.381699
0.407843
0.356863
0.415686
0.405229
0.371242
0.363399
0.152941
0.326797
0.345098
0.257516
0.143791
0.301961
0.180392
0.181699
0.300654
0.130719
0.372549
0.121569
0.345098
0.287582
0.406536
0.156863
0.396078
0.248366
0.322876
0.11634
0.169935
0.407843
0.253595
0.124183
0.129412
0.363399
0.16732
0.339869
0.355556
0.180392
0.253595
0.128105
0.141176
0.389542
0.120261
0.112418
0.129412
0.139869
0.265359
0.206536
0.333333
0.133333
0.121569
0.137255
0.394771
0.35817
0.299346
0.321569
0.345098
0.372549
0.326797
0.388235
0.363399
0.334641
0.328105
0.334641
0.315033
0.396078
0.32549
0.338562
0.36732
0.350327
0.369935
0.414379
0.379085
0.443137
0.373856
0.122876
0.335948
0.10719
0.373856
0.112418
0.113725
0.29281
0.108497
0.215686
0.299346
0.198693
0.154248
0.362092
0.186928
0.103268
0.202614
0.141176
0.286275
0.101961
0.260131
0.103268
0.364706
0.372549
0.258824
0.329412
0.410458
0.176471
0.109804
0.236601
0.338562
0.333333
0.338562
0.101961
0.101961
0.265359
0.122876
0.376471
0.124183
0.100654
0.372549
0.366013
0.253595
0.334641
0.364706
0.473203
0.207843
0.385621
0.112418
0.142484
0.193464
0.366013
0.366013
0.333333
0.308497
0.379085
0.376471
0.322876
0.375163
0.320261
0.334641
0.345098
0.359477
0.322876
0.345098
0.328105
0.338562
0.375163
0.366013
0.32549
0.364706
0.366013
0.328105
0.40915
0.377778
0.350327
0.341176
0.437908
0.330719
0.45098
0.339869
0.385621
0.330719
0.333333
0.366013
0.449673
0.329412
0.321569
0.368627
0.430065
0.329412
0.335948
0.321569
0.313725
0.343791
0.32549
0.330719
0.326797
0.368627
0.324183
0.326797
0.324183
0.352941
0.326797
0.35817
0.354248
0.369935
0.373856
0.401307
0.369935
0.338562
0.352941
0.393464
0.339869
0.401307
0.113725
0.115033
0.111111
0.237908
0.112418
0.101961
0.0993464
0.384314
0.104575
0.162092
0.416993
0.389542
0.388235
0.386928
0.32549
0.411765
0.183007
0.256209
0.304575
0.28366
0.295425
0.309804
0.347712
0.296732
0.288889
0.328105
0.330719
0.309804
0.419608
0.402614
0.385621
0.313725
0.300654
0.318954
0.415686
0.376471
0.273203
0.351634
0.326797
0.210458
0.322876
0.352941
0.371242
0.355556
0.392157
0.341176
0.39085
0.346405
0.36732
0.328105
0.415686
0.383007
0.350327
0.351634
0.318954
0.343791
0.320261
0.322876
0.341176
0.334641
0.339869
0.309804
0.301961
0.369935
0.287582
0.303268
0.300654
0.291503
0.30719
0.304575
0.296732
0.309804
0.364706
0.39085
0.371242
0.288889
0.305882
0.27451
0.220915
0.309804
0.299346
0.282353
0.249673
0.264052
0.299346
0.175163
0.313725
0.188235
0.180392
0.147712
0.30719
0.312418
0.320261
0.333333
0.337255
0.311111
0.30719
0.305882
0.420915
0.366013
0.315033
0.299346
0.330719
0.294118
0.183007
0.296732
0.175163
0.166013
0.227451
0.207843
0.155556
0.275817
0.14902
0.281046
0.14902
0.175163
0.220915
0.118954
0.156863
0.265359
0.202614
0.214379
0.296732
0.337255
0.248366
0.266667
0.228758
0.287582
0.279739
0.186928
0.312418
0.275817
0.184314
0.298039
0.284967
0.282353
0.265359
0.278431
0.270588
0.291503
0.287582
0.198693
0.0993464
0.155556
0.0993464
0.180392
0.281046
0.30719
0.243137
0.309804
0.341176
0.303268
0.275817
0.401307
0.237908
0.350327
0.279739
0.332026
0.282353
0.189542
0.239216
0.245752
0.27451
0.295425
0.352941
0.198693
0.278431
0.163399
0.287582
0.29281
0.32549
0.203922
0.338562
0.320261
0.360784
0.291503
0.333333
0.205229
0.30719
0.267974
0.192157
0.277124
0.277124
0.320261
0.321569
0.335948
0.155556
0.249673
0.220915
0.168627
0.180392
0.253595
0.184314
0.137255
0.236601
0.261438
0.380392
0.188235
0.303268
0.112418
0.249673
0.181699
0.244444
0.346405
0.239216
0.138562
0.379085
0.111111
0.329412
0.27451
0.278431
0.150327
0.122876
0.188235
0.176471
0.233987
0.282353
0.245752
0.172549
0.339869
0.28366
0.379085
0.286275
0.347712
0.350327
0.330719
0.338562
0.181699
0.356863
0.372549
0.341176
0.305882
0.352941
0.373856
0.346405
0.433987
0.359477
0.354248
0.362092
0.354248
0.398693
0.34902
0.288889
0.362092
0.32549
0.328105
0.278431
0.359477
0.373856
0.31634
0.341176
0.36732
0.359477
0.291503
0.320261
0.257516
0.291503
0.311111
0.350327
0.300654
0.328105
0.287582
0.369935
0.278431
0.456209
0.322876
0.368627
0.354248
0.342484
0.324183
0.337255
0.196078
0.137255
0.364706
0.350327
0.286275
0.386928
0.236601
0.383007
0.332026
0.359477
0.253595
0.371242
0.308497
0.356863
0.194771
0.333333
0.326797
0.369935
0.29281
0.337255
0.25098
0.36732
0.355556
0.278431
0.31634
0.379085
0.24183
0.228758
0.160784
0.356863
0.436601
0.372549
0.329412
0.295425
0.305882
0.386928
0.430065
0.28366
0.343791
0.303268
0.313725
0.304575
0.308497
0.29281
0.30719
0.31634
0.2
0.287582
0.301961
0.261438
0.31634
0.305882
0.282353
0.308497
0.290196
0.394771
0.270588
0.295425
0.470588
0.428758
0.313725
0.275817
0.308497
0.326797
0.291503
0.364706
0.290196
0.375163
0.420915
0.436601
0.332026
0.253595
0.266667
0.284967
0.305882
0.281046
0.269281
0.296732
0.419608
0.296732
0.322876
0.317647
0.414379
0.321569
0.287582
0.405229
0.445752
0.354248
0.256209
0.320261
0.414379
0.372549
0.291503
0.439216
0.376471
0.303268
0.150327
0.279739
0.279739
0.300654
0.318954
0.207843
0.304575
0.296732
0.29281
0.329412
0.295425
0.305882
0.257516
0.198693
0.303268
0.334641
0.341176
0.290196
0.332026
0.296732
0.295425
0.294118
0.322876
0.328105
0.341176
0.309804
0.299346
0.335948
0.288889
0.29281
0.346405
0.318954
0.233987
0.32549
0.30719
0.311111
0.35817
0.309804
0.305882
0.277124
0.324183
0.347712
0.305882
0.169935
0.318954
0.317647
0.328105
0.317647
0.347712
0.309804
0.315033
0.320261
0.499346
0.345098
0.243137
0.352941
0.196078
0.317647
0.424837
0.430065
0.427451
0.379085
0.4
0.388235
0.180392
0.304575
0.309804
0.335948
0.245752
0.305882
0.295425
0.414379
0.29281
0.194771
0.137255
0.308497
0.312418
0.321569
0.10719
0.189542
0.341176
0.226144
0.342484
0.360784
0.172549
0.291503
0.103268
0.163399
0.134641
0.101961
0.339869
0.346405
0.101961
0.224837
0.279739
0.309804
0.401307
0.363399
0.337255
0.362092
0.375163
0.346405
0.320261
0.397386
0.345098
0.385621
0.360784
0.320261
0.326797
0.309804
0.343791
0.394771
0.335948
0.339869
0.322876
0.305882
0.304575
0.294118
0.333333
0.287582
0.301961
0.299346
0.31634
0.305882
0.359477
0.299346
0.346405
0.383007
0.341176
0.305882
0.359477
0.347712
0.40915
0.362092
0.335948
0.339869
0.347712
0.322876
0.414379
0.392157
0.377778
0.32549
0.439216
0.363399
0.333333
0.36732
0.356863
0.317647
0.363399
0.305882
0.346405
0.339869
0.420915
0.368627
0.324183
0.338562
0.300654
0.377778
0.29281
0.333333
0.386928
0.324183
0.45098
0.364706
0.343791
0.420915
0.317647
0.32549
0.322876
0.313725
0.317647
0.281046
0.345098
0.330719
0.286275
0.376471
0.416993
0.386928
0.296732
0.312418
0.401307
0.362092
0.386928
0.401307
0.366013
0.312418
0.460131
0.303268
0.313725
0.430065
0.308497
0.321569
0.35817
0.299346
0.298039
0.328105
0.373856
0.315033
0.308497
0.318954
0.356863
0.341176
0.369935
0.30719
0.324183
0.369935
0.31634
0.305882
0.317647
0.30719
0.304575
0.369935
0.317647
0.338562
0.309804
0.312418
0.308497
0.334641
0.311111
0.377778
0.32549
0.30719
0.313725
0.341176
0.333333
0.337255
0.332026
0.311111
0.320261
0.305882
0.328105
0.338562
0.298039
0.332026
0.321569
0.326797
0.312418
0.324183
0.309804
0.299346
0.304575
0.313725
0.313725
0.321569
0.315033
0.315033
0.359477
0.305882
0.318954
0.388235
0.291503
0.366013
0.379085
0.304575
0.396078
0.303268
0.373856
0.368627
0.345098
0.394771
0.423529
0.298039
0.298039
0.300654
0.279739
0.299346
0.180392
0.227451
0.193464
0.281046
0.290196
0.379085
0.295425
0.359477
0.287582
0.337255
0.296732
0.304575
0.287582
0.287582
0.287582
0.355556
0.311111
0.346405
0.267974
0.288889
0.305882
0.312418
0.254902
0.304575
0.275817
0.324183
0.321569
0.300654
0.294118
0.303268
0.294118
0.299346
0.30719
0.30719
0.304575
0.308497
0.351634
0.30719
0.301961
0.303268
0.343791
0.406536
0.334641
0.39085
0.380392
0.355556
0.321569
0.309804
0.312418
0.312418
0.329412
0.381699
0.375163
0.366013
0.346405
0.332026
0.31634
0.266667
0.339869
0.350327
0.454902
0.308497
0.31634
0.363399
0.354248
0.342484
0.301961
0.354248
0.288889
0.304575
0.28366
0.118954
0.398693
0.315033
0.23268
0.163399
0.324183
0.2
0.260131
0.273203
0.333333
0.318954
0.322876
0.139869
0.19085
0.339869
0.142484
0.354248
0.31634
0.328105
0.40915
0.343791
0.291503
0.411765
0.294118
0.288889
0.288889
0.151634
0.214379
0.247059
0.265359
0.300654
0.256209
0.230065
0.223529
0.27451
0.287582
0.332026
0.273203
0.270588
0.304575
0.368627
0.264052
0.309804
0.352941
0.271895
0.495425
0.264052
0.193464
0.222222
0.496732
0.447059
0.521569
0.512418
0.223529
0.44183
0.477124
0.482353
0.479739
0.547712
0.508497
0.541176
0.44183
0.547712
0.494118
0.49281
0.461438
0.518954
0.308497
0.44183
0.487582
0.347712
0.32549
0.345098
0.267974
0.228758
0.362092
0.318954
0.321569
0.322876
0.311111
0.321569
0.371242
0.313725
0.491503
0.343791
0.308497
0.372549
0.223529
0.236601
0.345098
0.494118
0.31634
0.352941
0.315033
0.373856
0.383007
0.291503
0.401307
0.239216
0.328105
0.40915
0.383007
0.420915
0.381699
0.346405
0.346405
0.315033
0.139869
0.315033
0.218301
0.244444
0.295425
0.196078
0.322876
0.0993464
0.350327
0.261438
0.313725
0.138562
0.405229
0.305882
0.337255
0.315033
0.326797
0.317647
0.300654
0.290196
0.334641
0.320261
0.303268
0.300654
0.294118
0.369935
0.286275
0.30719
0.362092
0.337255
0.295425
0.343791
0.309804
0.265359
0.30719
0.363399
0.29281
0.371242
0.298039
0.346405
0.304575
0.312418
0.298039
0.322876
0.309804
0.31634
0.345098
0.433987
0.398693
0.320261
0.447059
0.330719
0.40915
0.428758
0.312418
0.416993
0.415686
0.386928
0.326797
0.36732
0.351634
0.329412
0.262745
0.290196
0.215686
0.311111
0.335948
0.350327
0.284967
0.332026
0.143791
0.126797
0.351634
0.427451
0.10719
0.108497
0.384314
0.096732
0.120261
0.104575
0.210458
0.141176
0.290196
0.359477
0.394771
0.15817
0.4
0.105882
0.31634
0.096732
0.103268
0.384314
0.393464
0.406536
0.384314
0.392157
0.266667
0.369935
0.488889
0.103268
0.103268
0.31634
0.396078
0.397386
0.389542
0.405229
0.460131
0.360784
0.341176
0.4
0.350327
0.398693
0.363399
0.384314
0.338562
0.236601
0.449673
0.105882
0.269281
0.150327
0.362092
0.373856
0.334641
0.273203
0.213072
0.326797
0.338562
0.321569
0.398693
0.0980392
0.096732
0.30719
0.351634
0.363399
0.322876
0.318954
0.311111
0.253595
0.321569
0.345098
0.318954
0.332026
0.350327
0.337255
0.320261
0.386928
0.105882
0.34902
0.377778
0.328105
0.313725
0.343791
0.460131
0.324183
0.332026
0.334641
0.315033
0.467974
0.45098
0.494118
0.503268
0.427451
0.420915
0.464052
0.351634
0.416993
0.31634
0.339869
0.372549
0.34902
0.406536
0.380392
0.403922
0.377778
0.299346
0.337255
0.402614
0.377778
0.356863
0.363399
0.335948
0.328105
0.448366
0.345098
0.392157
0.359477
0.435294
0.355556
0.294118
0.363399
0.333333
0.309804
0.376471
0.392157
0.324183
0.334641
0.34902
0.318954
0.334641
0.413072
0.321569
0.326797
0.394771
0.407843
0.386928
0.346405
0.34902
0.352941
0.305882
0.373856
0.428758
0.393464
0.32549
0.346405
0.333333
0.31634
0.312418
0.416993
0.375163
0.332026
0.385621
0.317647
0.321569
0.385621
0.322876
0.342484
0.324183
0.44183
0.342484
0.350327
0.386928
0.345098
0.32549
0.495425
0.339869
0.362092
0.341176
0.346405
0.334641
0.338562
0.324183
0.321569
0.360784
0.368627
0.129412
0.330719
0.407843
0.384314
0.373856
0.456209
0.345098
0.304575
0.352941
0.362092
0.368627
0.418301
0.343791
0.419608
0.333333
0.398693
0.371242
0.379085
0.356863
0.402614
0.396078
0.428758
0.335948
0.350327
0.341176
0.386928
0.330719
0.318954
0.431373
0.321569
0.369935
0.411765
0.32549
0.419608
0.401307
0.418301
0.341176
0.35817
0.392157
0.363399
0.305882
0.410458
0.386928
0.384314
0.379085
0.168627
0.267974
0.205229
0.168627
0.126797
0.330719
0.151634
0.377778
0.381699
0.206536
0.356863
0.329412
0.335948
0.337255
0.346405
0.339869
0.324183
0.380392
0.257516
0.324183
0.371242
0.345098
0.332026
0.333333
0.320261
0.393464
0.448366
0.414379
0.322876
0.4
0.339869
0.341176
0.359477
0.415686
0.121569
0.360784
0.420915
0.381699
0.343791
0.332026
0.324183
0.301961
0.317647
0.324183
0.443137
0.211765
0.397386
0.491503
0.286275
0.171242
0.403922
0.269281
0.330719
0.260131
0.380392
0.233987
0.156863
0.623529
0.504575
0.320261
0.244444
0.301961
0.449673
0.394771
0.176471
0.29281
0.420915
0.350327
0.198693
0.126797
0.637908
0.630065
0.20915
0.205229
0.113725
0.117647
0.227451
0.19085
0.326797
0.256209
0.183007
0.141176
0.236601
0.447059
0.14902
0.286275
0.418301
0.422222
0.405229
0.437908
0.226144
0.369935
0.141176
0.466667
0.427451
0.215686
0.403922
0.34902
0.768627
0.460131
0.4
0.43268
0.397386
0.304575
0.248366
0.423529
0.243137
0.258824
0.194771
0.364706
0.145098
0.401307
0.311111
0.0954248
0.142484
0.392157
0.406536
0.196078
0.388235
0.269281
0.371242
0.103268
0.11634
0.108497
0.0993464
0.101961
0.375163
0.0980392
0.145098
0.135948
0.180392
0.347712
0.19085
0.410458
0.320261
0.426144
0.109804
0.281046
0.373856
0.215686
0.444444
0.183007
0.471895
0.329412
0.330719
0.341176
0.394771
0.197386
0.352941
0.369935
0.422222
0.405229
0.406536
0.341176
0.360784
0.419608
0.392157
0.414379
0.377778
0.418301
0.413072
0.397386
0.397386
0.396078
0.410458
0.356863
0.393464
0.39085
0.396078
0.415686
0.223529
0.171242
0.401307
0.347712
0.402614
0.393464
0.396078
0.403922
0.45098
0.443137
0.444444
0.45098
0.456209
0.611765
0.467974
0.457516
0.456209
0.416993
0.397386
0.332026
0.338562
0.352941
0.401307
0.448366
0.383007
0.452288
0.456209
0.771242
0.623529
0.347712
0.375163
0.465359
0.768627
0.769935
0.347712
0.36732
0.339869
0.392157
0.342484
0.309804
0.356863
0.352941
0.345098
0.313725
0.342484
0.305882
0.34902
0.330719
0.324183
0.335948
0.431373
0.32549
0.372549
0.332026
0.328105
0.326797
0.335948
0.335948
0.339869
0.334641
0.347712
0.324183
0.34902
0.364706
0.347712
0.397386
0.403922
0.32549
0.371242
0.39085
0.415686
0.413072
0.351634
0.332026
0.321569
0.321569
0.346405
0.351634
0.36732
0.386928
0.368627
0.308497
0.413072
0.34902
0.322876
0.362092
0.362092
0.320261
0.317647
0.393464
0.435294
0.384314
0.308497
0.312418
0.311111
0.333333
0.328105
0.317647
0.313725
0.318954
0.308497
0.309804
0.315033
0.329412
0.305882
0.313725
0.305882
0.300654
0.309804
0.317647
0.303268
0.304575
0.31634
0.311111
0.308497
0.265359
0.311111
0.300654
0.286275
0.299346
0.269281
0.28366
0.286275
0.269281
0.320261
0.287582
0.311111
0.324183
0.269281
0.318954
0.313725
0.271895
0.27451
0.291503
0.287582
0.277124
0.28366
0.312418
0.305882
0.301961
0.315033
0.309804
0.288889
0.312418
0.320261
0.291503
0.281046
0.282353
0.313725
0.287582
0.273203
0.291503
0.290196
0.278431
0.281046
0.278431
0.294118
0.311111
0.321569
0.309804
0.315033
0.315033
0.313725
0.444444
0.4
0.312418
0.313725
0.345098
0.354248
0.301961
0.313725
0.304575
0.31634
0.309804
0.30719
0.315033