# vtk DataFile Version 1.0
Unstructured Grid Example
ASCII

DATASET UNSTRUCTURED_GRID
POINTS 7455 float
193 175 0
284 400 0
39 505 0
289 431 0
327 401 0
308 383 0
476 308 0
87 251 0
208 338 0
171 362 0
62 345 0
26 363 0
26 448 0
39 483 0
11 495 0
204 419 0
68 383 0
124 376 0
274 362 0
253 421 0
512 483 0
291 371 0
297 371 0
296 316 0
280 357 0
280 303 0
262 264 0
292 217 0
319 65 0
23 264 0
51 289 0
108 284 0
76 248 0
130 212 0
254 178 0
254 127 0
251 227 0
249 286 0
168 219 0
230 297 0
247 301 0
247 374 0
244 364 0
236 359 0
191 376 0
88 342 0
81 319 0
4 297 0
62 329 0
76 362 0
111 432 0
128 403 0
83 459 0
75 456 0
72 463 0
12 482 0
85 490 0
47 501 0
107 498 0
88 482 0
97 473 0
141 474 0
132 513 0
169 513 0
196 508 0
205 500 0
198 473 0
143 460 0
137 471 0
243 379 0
246 398 0
257 429 0
298 347 0
304 352 0
315 355 0
299 378 0
263 366 0
274 397 0
271 502 0
281 507 0
286 421 0
315 420 0
337 405 0
353 504 0
347 513 0
370 471 0
455 465 0
360 414 0
497 403 0
446 394 0
443 390 0
459 346 0
480 385 0
508 389 0
491 304 0
463 281 0
442 315 0
357 326 0
451 329 0
344 320 0
330 330 0
324 329 0
293 316 0
334 295 0
347 316 0
271 275 0
267 223 0
313 148 0
321 58 0
322 77 0
401 1 0
322 114 0
366 236 0
487 272 0
435 209 0
512 13 0
9 234 0
24 18 0
25 269 0
5 235 0
0 252 0
2 274 0
3 315 0
9 312 0
22 289 0
6 277 0
25 305 0
34 312 0
43 315 0
59 265 0
101 264 0
82 256 0
75 254 0
65 258 0
39 47 0
54 103 0
73 185 0
136 208 0
142 211 0
153 213 0
187 207 0
145 144 0
201 129 0
231 138 0
237 45 0
225 214 0
197 219 0
195 212 0
201 232 0
239 242 0
242 288 0
222 295 0
212 274 0
188 258 0
188 249 0
173 244 0
152 228 0
133 246 0
106 308 0
91 335 0
98 350 0
127 356 0
185 351 0
99 319 0
227 336 0
238 321 0
241 316 0
218 353 0
209 357 0
201 341 0
199 367 0
221 381 0
228 386 0
213 382 0
195 388 0
195 376 0
177 374 0
188 367 0
104 378 0
162 381 0
84 387 0
59 382 0
55 378 0
44 374 0
51 358 0
56 365 0
58 351 0
62 351 0
56 333 0
50 350 0
56 356 0
47 357 0
37 342 0
20 323 0
0 326 0
20 327 0
17 336 0
0 345 0
26 355 0
30 355 0
42 377 0
41 370 0
36 366 0
6 421 0
0 421 0
41 437 0
53 400 0
71 396 0
73 401 0
90 412 0
106 432 0
83 432 0
79 441 0
97 445 0
103 442 0
102 447 0
97 449 0
94 450 0
93 478 0
55 461 0
76 450 0
40 448 0
35 449 0
9 462 0
42 484 0
66 484 0
28 502 0
16 490 0
9 490 0
6 507 0
11 509 0
10 513 0
54 511 0
32 510 0
45 505 0
76 509 0
70 511 0
87 509 0
100 502 0
90 498 0
99 494 0
91 495 0
90 485 0
69 484 0
81 484 0
100 483 0
131 463 0
158 468 0
144 474 0
144 480 0
132 477 0
120 481 0
107 505 0
107 508 0
142 510 0
150 506 0
140 498 0
164 511 0
158 513 0
183 513 0
173 513 0
168 507 0
211 493 0
209 497 0
178 491 0
207 489 0
212 485 0
222 485 0
203 460 0
207 455 0
180 434 0
203 439 0
162 443 0
138 448 0
126 457 0
119 450 0
113 423 0
128 442 0
155 423 0
215 419 0
111 418 0
113 403 0
154 416 0
218 401 0
230 389 0
220 398 0
224 402 0
231 402 0
239 392 0
237 391 0
281 359 0
250 372 0
294 377 0
300 376 0
285 364 0
307 360 0
310 350 0
334 375 0
333 365 0
311 375 0
323 385 0
326 384 0
338 392 0
326 388 0
324 390 0
292 389 0
296 386 0
314 378 0
259 378 0
290 383 0
266 391 0
245 396 0
301 395 0
264 408 0
249 408 0
243 407 0
258 415 0
268 489 0
250 503 0
303 490 0
294 430 0
293 415 0
317 462 0
314 506 0
343 454 0
322 449 0
321 441 0
321 411 0
321 424 0
308 405 0
323 401 0
335 398 0
336 400 0
347 394 0
361 394 0
403 407 0
402 404 0
390 396 0
362 417 0
348 434 0
360 513 0
375 412 0
409 412 0
408 408 0
448 406 0
461 433 0
500 438 0
509 437 0
508 409 0
445 403 0
433 404 0
416 405 0
419 402 0
443 400 0
485 400 0
494 387 0
491 381 0
413 385 0
455 387 0
477 389 0
373 394 0
344 384 0
344 389 0
352 379 0
360 380 0
366 378 0
348 362 0
345 363 0
343 359 0
350 355 0
362 353 0
451 350 0
450 366 0
425 374 0
507 373 0
500 365 0
455 349 0
512 346 0
480 341 0
448 335 0
456 332 0
476 335 0
467 329 0
461 311 0
489 290 0
450 292 0
454 294 0
446 328 0
411 314 0
434 309 0
358 314 0
359 324 0
387 328 0
342 334 0
373 331 0
443 335 0
377 338 0
367 344 0
355 348 0
332 344 0
336 318 0
323 322 0
321 336 0
312 346 0
304 328 0
284 342 0
265 335 0
276 321 0
282 325 0
305 323 0
269 311 0
257 307 0
244 300 0
247 284 0
262 299 0
277 289 0
283 298 0
298 305 0
300 308 0
320 299 0
339 293 0
324 138 0
340 134 0
319 120 0
314 157 0
289 161 0
275 266 0
271 282 0
246 270 0
263 224 0
273 178 0
284 135 0
312 58 0
297 62 0
282 41 0
306 56 0
312 47 0
317 60 0
314 65 0
312 99 0
329 89 0
326 59 0
347 53 0
371 47 0
373 31 0
400 72 0
374 65 0
364 60 0
377 72 0
402 153 0
376 271 0
417 267 0
414 239 0
416 201 0
437 272 0
437 282 0
494 280 0
482 276 0
441 264 0
440 211 0
420 249 0
420 203 0
420 190 0
456 13 0
496 1 0
0 49 0
0 112 0
0 132 0
0 22 0
0 5 0
4 1 0
12 1 0
13 9 0
7 76 0
4 6 0
15 205 0
29 177 0
18 251 0
13 236 0
13 241 0
11 251 0
5 243 0
12 229 0
0 195 0
0 225 0
3 246 0
2 256 0
6 260 0
12 272 0
11 269 0
3 268 0
1 272 0
0 277 0
9 277 0
11 287 0
11 283 0
12 277 0
16 284 0
15 287 0
22 286 0
23 280 0
22 275 0
32 273 0
19 266 0
13 264 0
18 260 0
24 261 0
27 258 0
38 255 0
71 265 0
68 267 0
49 271 0
40 274 0
61 279 0
66 283 0
35 283 0
71 283 0
67 277 0
73 277 0
73 268 0
83 278 0
110 288 0
89 272 0
125 270 0
122 263 0
119 265 0
81 266 0
117 250 0
128 255 0
129 259 0
134 230 0
134 219 0
129 216 0
129 232 0
127 243 0
90 235 0
71 247 0
67 243 0
45 230 0
111 223 0
117 229 0
59 166 0
52 193 0
35 1 0
43 134 0
45 1 0
63 1 0
82 148 0
120 210 0
131 199 0
130 81 0
130 1 0
140 30 0
161 144 0
143 192 0
137 172 0
134 161 0
160 201 0
144 229 0
167 231 0
170 226 0
175 219 0
188 222 0
176 223 0
209 232 0
194 227 0
191 225 0
184 220 0
181 206 0
178 216 0
178 119 0
181 199 0
209 205 0
215 40 0
213 202 0
217 198 0
223 176 0
217 148 0
225 1 0
234 24 0
245 117 0
235 174 0
232 188 0
226 161 0
223 206 0
240 205 0
248 219 0
235 214 0
229 232 0
219 223 0
223 218 0
220 209 0
213 210 0
217 211 0
217 219 0
235 239 0
234 270 0
241 267 0
241 249 0
236 248 0
246 253 0
251 265 0
252 259 0
249 271 0
247 267 0
244 266 0
246 274 0
252 274 0
254 286 0
246 288 0
245 278 0
236 282 0
241 278 0
238 272 0
235 273 0
233 285 0
235 287 0
219 282 0
208 286 0
192 277 0
197 253 0
226 265 0
211 248 0
217 246 0
215 235 0
202 237 0
200 242 0
204 248 0
188 234 0
192 234 0
147 238 0
161 239 0
154 243 0
138 246 0
138 265 0
157 263 0
141 268 0
136 282 0
135 276 0
113 291 0
147 295 0
124 300 0
111 300 0
102 308 0
107 312 0
108 320 0
146 331 0
112 320 0
119 310 0
179 325 0
203 332 0
215 330 0
205 328 0
216 326 0
224 315 0
219 315 0
210 324 0
164 292 0
197 304 0
218 299 0
224 300 0
227 314 0
231 313 0
236 305 0
236 302 0
249 299 0
253 305 0
253 299 0
253 309 0
244 313 0
239 307 0
247 314 0
252 315 0
252 330 0
249 328 0
248 321 0
234 329 0
245 326 0
233 326 0
232 317 0
229 317 0
224 333 0
222 344 0
215 345 0
230 349 0
229 342 0
228 333 0
234 344 0
236 342 0
245 335 0
249 351 0
245 346 0
241 350 0
245 353 0
248 353 0
248 360 0
241 357 0
241 365 0
239 363 0
233 359 0
228 358 0
224 363 0
228 366 0
224 369 0
200 372 0
196 370 0
197 363 0
211 366 0
213 363 0
213 348 0
213 343 0
211 337 0
200 335 0
210 346 0
208 349 0
180 345 0
194 340 0
103 342 0
105 347 0
160 348 0
112 357 0
148 365 0
173 368 0
191 371 0
185 370 0
105 369 0
94 361 0
91 359 0
84 358 0
84 368 0
77 369 0
74 367 0
54 370 0
53 363 0
60 356 0
64 356 0
70 359 0
68 352 0
62 354 0
55 338 0
63 338 0
64 343 0
88 338 0
72 340 0
74 343 0
88 346 0
92 345 0
92 340 0
100 322 0
99 325 0
82 312 0
91 321 0
99 315 0
99 304 0
92 298 0
90 289 0
86 291 0
89 294 0
89 308 0
78 314 0
71 298 0
55 309 0
62 310 0
70 319 0
55 321 0
64 319 0
66 325 0
71 329 0
70 334 0
58 338 0
40 328 0
30 328 0
31 322 0
36 320 0
51 312 0
44 307 0
39 297 0
49 294 0
36 292 0
29 304 0
27 308 0
24 295 0
17 293 0
12 291 0
0 293 0
7 294 0
4 304 0
9 296 0
10 302 0
26 312 0
14 305 0
0 320 0
6 340 0
0 351 0
25 336 0
27 332 0
6 329 0
36 336 0
37 329 0
42 330 0
51 341 0
43 345 0
39 350 0
42 360 0
46 354 0
49 370 0
45 368 0
39 362 0
20 372 0
22 368 0
27 367 0
17 354 0
7 354 0
14 358 0
4 391 0
28 388 0
26 402 0
19 395 0
0 393 0
9 403 0
0 406 0
19 431 0
21 408 0
33 405 0
33 420 0
43 433 0
60 422 0
44 418 0
49 412 0
49 395 0
41 386 0
37 388 0
35 380 0
54 381 0
55 373 0
61 384 0
63 389 0
72 388 0
67 377 0
77 375 0
78 372 0
84 374 0
87 374 0
83 384 0
79 382 0
79 385 0
92 396 0
97 402 0
102 411 0
79 425 0
78 431 0
70 409 0
78 406 0
68 399 0
63 403 0
68 405 0
63 411 0
52 434 0
51 438 0
81 453 0
66 446 0
77 446 0
83 438 0
94 441 0
103 434 0
91 441 0
88 453 0
85 441 0
101 460 0
101 457 0
104 465 0
95 463 0
90 465 0
86 466 0
75 465 0
67 461 0
67 453 0
58 456 0
50 457 0
33 466 0
29 463 0
21 459 0
34 461 0
46 462 0
45 458 0
45 453 0
39 443 0
22 438 0
23 451 0
23 455 0
15 449 0
8 438 0
5 434 0
7 447 0
4 451 0
8 454 0
13 462 0
20 456 0
18 463 0
12 466 0
7 465 0
3 473 0
0 480 0
3 480 0
5 471 0
6 468 0
29 467 0
33 469 0
50 467 0
43 470 0
38 473 0
23 475 0
41 481 0
49 481 0
46 481 0
46 490 0
42 491 0
40 487 0
20 484 0
15 482 0
8 482 0
0 486 0
11 487 0
23 496 0
27 497 0
21 498 0
15 501 0
2 500 0
28 506 0
23 508 0
17 510 0
32 513 0
32 507 0
33 504 0
38 508 0
38 513 0
49 510 0
42 508 0
40 507 0
47 504 0
44 500 0
41 500 0
33 496 0
35 492 0
40 497 0
64 496 0
71 497 0
66 498 0
60 499 0
55 498 0
62 501 0
55 502 0
56 513 0
71 513 0
62 509 0
65 501 0
82 508 0
97 513 0
101 513 0
106 511 0
97 508 0
90 507 0
87 506 0
75 507 0
74 505 0
77 503 0
85 500 0
96 487 0
92 481 0
79 489 0
92 490 0
82 492 0
68 495 0
60 490 0
54 494 0
59 478 0
72 487 0
73 490 0
83 475 0
68 473 0
56 471 0
65 468 0
86 469 0
90 472 0
92 475 0
96 476 0
105 470 0
106 467 0
97 466 0
111 445 0
125 451 0
140 450 0
136 439 0
127 438 0
141 441 0
145 450 0
157 450 0
145 453 0
144 457 0
146 459 0
152 460 0
161 465 0
155 479 0
145 467 0
141 471 0
132 470 0
133 465 0
123 457 0
114 462 0
125 478 0
111 483 0
115 481 0
142 507 0
141 488 0
131 508 0
109 510 0
133 511 0
124 513 0
136 510 0
139 509 0
134 508 0
146 496 0
149 508 0
151 500 0
163 499 0
157 498 0
160 493 0
156 495 0
150 494 0
144 491 0
144 484 0
147 481 0
180 494 0
183 494 0
193 503 0
188 500 0
178 498 0
176 506 0
179 507 0
169 510 0
195 513 0
182 507 0
185 507 0
199 508 0
[...]
CELL_DATA 14632
COLOR_SCALARS ColorSpace 1
0.436601
0.281046
0.362092
0.345098
0.162092
0.32549
0.381699
0.345098
0.317647
0.44183
0.330719
0.364706
0.386928
0.36732
0.295425
0.300654
0.118954
0.309804
0.275817
0.304575
0.296732
0.346405
0.341176
0.352941
0.303268
0.360784
0.375163
0.207843
0.243137
0.371242
0.392157
0.332026
0.118954
0.333333
0.350327
0.287582
0.312418
0.312418
0.286275
0.300654
0.34902
0.347712
0.355556
0.45098
0.462745
0.397386
0.360784
0.419608
0.141176
0.427451
0.151634
0.16732
0.345098
0.118954
0.481046
0.347712
0.430065
0.385621
0.275817
0.363399
0.299346
0.118954
0.311111
0.372549
0.356863
0.206536
0.312418
0.347712
0.384314
0.333333
0.32549
0.330719
0.4
0.168627
0.305882
0.301961
0.196078
0.356863
0.341176
0.335948
0.363399
0.312418
0.359477
0.338562
0.354248
0.354248
0.326797
0.351634
0.308497
0.343791
0.373856
0.363399
0.465359
0.339869
0.376471
0.296732
0.311111
0.275817
0.345098
0.0928105
0.121569
0.270588
0.261438
0.298039
0.271895
0.328105
0.256209
0.295425
0.393464
0.277124
0.354248
0.211765
0.266667
0.262745
0.252288
0.320261
0.288889
0.393464
0.401307
0.326797
0.262745
0.301961
0.275817
0.309804
0.256209
0.318954
0.296732
0.31634
0.301961
0.355556
0.31634
0.313725
0.338562
0.362092
0.482353
0.359477
0.258824
0.257516
0.30719
0.377778
0.342484
0.394771
0.0915033
0.290196
0.345098
0.301961
0.313725
0.341176
0.35817
0.317647
0.176471
0.233987
0.294118
0.411765
0.281046
0.299346
0.363399
0.407843
0.334641
0.166013
0.168627
0.171242
0.308497
0.109804
0.267974
0.402614
0.264052
0.482353
0.210458
0.31634
0.247059
0.318954
0.23268
0.430065
0.296732
0.396078
0.371242
0.224837
0.72549
0.488889
0.312418
0.4
0.288889
0.379085
0.322876
0.366013
0.360784
0.324183
0.296732
0.416993
0.416993
0.329412
0.339869
0.30719
0.360784
0.376471
0.172549
0.317647
0.341176
0.346405
0.138562
0.436601
0.379085
0.134641
0.11634
0.179085
0.470588
0.478431
0.129412
0.373856
0.436601
0.224837
0.235294
0.179085
0.326797
0.406536
0.398693
0.352941
0.437908
0.393464
0.338562
0.360784
0.392157
0.339869
0.318954
0.45098
0.385621
0.465359
0.311111
0.312418
0.265359
0.266667
0.309804
0.295425
0.309804
0.309804
0.329412
0.304575
0.296732
0.287582
0.305882
0.322876
0.377778
0.303268
0.324183
0.329412
0.330719
0.305882
0.109804
0.351634
0.309804
0.141176
0.368627
0.371242
0.43268
0.418301
0.427451
0.355556
0.373856
0.440523
0.419608
0.145098
0.168627
0.117647
0.198693
0.244444
0.14902
0.132026
0.437908
0.135948
0.410458
0.457516
0.415686
0.352941
0.469281
0.484967
0.381699
0.342484
0.343791
0.120261
0.337255
0.354248
0.27451
0.359477
0.141176
0.173856
0.34902
0.24183
0.379085
0.454902
0.11634
0.124183
0.146405
0.121569
0.220915
0.124183
0.138562
0.115033
0.40915
0.271895
0.423529
0.121569
0.359477
0.117647
0.345098
0.104575
0.372549
0.338562
0.334641
0.100654
0.122876
0.159477
0.376471
0.288889
0.384314
0.448366
0.360784
0.308497
0.341176
0.347712
0.363399
0.145098
0.411765
0.115033
0.435294
0.219608
0.373856
0.257516
0.428758
0.389542
0.328105
0.281046
0.392157
0.394771
0.39085
0.333333
0.333333
0.34902
0.326797
0.113725
0.111111
0.332026
0.173856
0.100654
0.104575
0.103268
0.198693
0.32549
0.196078
0.103268
0.401307
0.326797
0.284967
0.282353
0.303268
0.308497
0.345098
0.324183
0.309804
0.186928
0.286275
0.320261
0.309804
0.388235
0.311111
0.227451
0.294118
0.300654
0.309804
0.363399
0.291503
0.298039
0.284967
0.303268
0.168627
0.273203
0.30719
0.277124
0.299346
0.188235
0.171242
0.215686
0.375163
0.211765
0.273203
0.305882
0.275817
0.295425
0.186928
0.311111
0.375163
0.16732
0.248366
0.34902
0.171242
0.202614
0.321569
0.279739
0.267974
0.256209
0.287582
0.311111
0.282353
0.312418
0.355556
0.121569
0.30719
0.291503
0.265359
0.300654
0.359477
0.354248
0.373856
0.159477
0.381699
0.296732
0.39085
0.304575
0.360784
0.362092
0.295425
0.266667
0.244444
0.304575
0.372549
0.27451
0.185621
0.206536
0.194771
0.171242
0.237908
0.359477
0.317647
0.380392
0.16732
0.296732
0.228758
0.244444
0.326797
0.332026
0.155556
0.396078
0.35817
0.360784
0.345098
0.321569
0.315033
0.300654
0.309804
0.320261
0.236601
0.34902
0.342484
0.324183
0.380392
0.304575
0.258824
0.495425
0.393464
0.286275
0.346405
0.385621
0.375163
0.393464
0.298039
0.321569
0.375163
0.256209
0.321569
0.308497
0.377778
0.405229
0.330719
0.29281
0.30719
0.330719
0.318954
0.308497
0.29281
0.317647
0.309804
0.305882
0.415686
0.300654
0.467974
0.27451
0.465359
0.308497
0.481046
0.339869
0.321569
0.318954
0.277124
0.201307
0.389542
0.287582
0.279739
0.435294
0.34902
0.324183
0.219608
0.245752
0.230065
0.194771
0.146405
0.294118
0.385621
0.301961
0.235294
0.281046
0.25098
0.296732
0.145098
0.341176
0.305882
0.334641
0.29281
0.351634
0.413072
0.342484
0.360784
0.343791
0.359477
0.291503
0.143791
0.308497
0.321569
0.296732
0.150327
0.244444
0.126797
0.29281
0.205229
0.248366
0.346405
0.375163
0.286275
0.0954248
0.100654
0.096732
0.150327
0.2
0.101961
0.304575
0.330719
0.332026
0.347712
0.453595
0.402614
0.377778
0.299346
0.40915
0.300654
0.308497
0.396078
0.333333
0.308497
0.373856
0.386928
0.424837
0.335948
0.376471
0.342484
0.322876
0.366013
0.298039
0.339869
0.364706
0.347712
0.379085
0.346405
0.393464
0.304575
0.411765
0.469281
0.324183
0.31634
0.373856
0.381699
0.39085
0.462745
0.34902
0.317647
0.328105
0.389542
0.375163
0.342484
0.317647
0.301961
0.347712
0.435294
0.419608
0.342484
0.329412
0.305882
0.333333
0.295425
0.291503
0.337255
0.317647
0.29281
0.346405
0.40915
0.301961
0.388235
0.318954
0.354248
0.44183
0.335948
0.333333
0.299346
0.205229
0.275817
0.145098
0.163399
0.201307
0.24183
0.29281
0.284967
0.377778
0.311111
0.252288
0.27451
0.270588
0.14902
0.270588
0.243137
0.281046
0.266667
0.309804
0.282353
0.397386
0.461438
0.304575
0.377778
0.290196
0.30719
0.342484
0.366013
0.47451
0.398693
0.350327
0.294118
0.418301
0.282353
0.311111
0.261438
0.29281
0.237908
0.298039
0.198693
0.171242
0.176471
0.305882
0.281046
0.298039
0.277124
0.282353
0.326797
0.294118
0.311111
0.235294
0.322876
0.313725
0.211765
0.49281
0.501961
0.452288
0.295425
0.511111
0.414379
0.49281
0.215686
0.326797
0.252288
0.330719
0.264052
0.305882
0.130719
0.27451
0.271895
0.256209
0.318954
0.615686
0.433987
0.423529
0.301961
0.416993
0.407843
0.376471
0.299346
0.244444
0.24183
0.426144
0.396078
0.322876
0.30719
0.372549
0.31634
0.326797
0.341176
0.304575
0.334641
0.301961
0.298039
0.308497
0.118954
0.368627
0.339869
0.296732
0.294118
0.322876
0.355556
0.313725
0.36732
0.315033
0.0993464
0.179085
0.0901961
0.284967
0.411765
0.101961
0.211765
0.380392
0.303268
0.464052
0.397386
0.224837
0.517647
0.401307
0.326797
0.338562
0.104575
0.371242
0.261438
0.354248
0.380392
0.406536
0.338562
0.338562
0.419608
0.389542
0.396078
0.115033
0.334641
0.354248
0.376471
0.335948
0.152941
0.317647
0.322876
0.0980392
0.317647
0.143791
0.244444
0.0980392
0.346405
0.105882
0.0980392
0.363399
0.44183
0.118954
0.329412
0.155556
0.206536
0.207843
0.0954248
0.436601
0.315033
0.405229
0.405229
0.376471
0.444444
0.313725
0.419608
0.389542
0.339869
0.356863
0.330719
0.444444
0.35817
0.311111
0.469281
0.458824
0.375163
0.416993
0.376471
0.356863
0.371242
0.341176
0.355556
0.447059
0.430065
0.330719
0.384314
0.386928
0.322876
0.379085
0.346405
0.332026
0.36732
0.288889
0.346405
0.371242
0.398693
0.380392
0.338562
0.40915
0.355556
0.452288
0.362092
0.413072
0.368627
0.108497
0.211765
0.143791
0.163399
0.16732
0.207843
0.115033
0.419608
0.160784
0.35817
0.175163
0.169935
0.354248
0.354248
0.341176
0.338562
0.45098
0.138562
0.347712
0.164706
0.396078
0.164706
0.428758
0.169935
0.179085
0.181699
0.115033
0.427451
0.504575
0.4
0.491503
0.129412
0.509804
0.230065
0.12549
0.118954
0.124183
0.284967
0.179085
0.218301
0.224837
0.461438
0.132026
0.254902
0.381699
0.132026
0.44183
0.479739
0.444444
0.397386
0.343791
0.403922
0.447059
0.410458
0.168627
0.40915
0.454902
0.383007
0.386928
0.122876
0.105882
0.0954248
0.10719
0.428758
0.105882
0.394771
0.143791
0.10719
0.243137
0.329412
0.20915
0.101961
0.386928
0.394771
0.410458
0.352941
0.36732
0.397386
0.389542
0.252288
0.104575
0.326797
0.126797
0.227451
0.12549
0.388235
0.465359
0.631373
0.460131
0.453595
0.465359
0.427451
0.521569
0.771242
0.487582
0.486275
0.454902
0.456209
0.47451
0.626144
0.43268
0.343791
0.452288
0.405229
0.318954
0.368627
0.355556
0.386928
0.393464
0.362092
0.311111
0.34902
0.350327
0.345098
0.350327
0.334641
0.411765
0.343791
0.346405
0.352941
0.347712
0.330719
0.422222
0.342484
0.338562
0.318954
0.30719
0.352941
0.330719
0.4
0.308497
0.366013
0.311111
0.318954
0.304575
0.31634
0.309804
0.311111
0.301961
0.315033
0.313725
0.315033
0.397386
0.300654
0.315033
0.313725
0.322876
0.426144
0.32549
0.303268
0.330719
0.347712
0.309804
0.416993
0.337255
0.351634
0.419608
0.337255
0.352941
0.330719
0.345098
0.396078
0.381699
0.386928
0.386928
0.117647
0.385621
0.284967
0.25098
0.384314
0.337255
0.375163
0.341176
0.40915
0.354248
0.39085
0.343791
0.334641
0.304575
0.414379
0.359477
0.411765
0.142484
0.377778
0.115033
0.371242
0.202614
0.203922
0.118954
0.350327
0.334641
0.112418
0.377778
0.105882
0.120261
0.364706
0.351634
0.111111
0.341176
0.12549
0.113725
0.364706
0.40915
0.359477
0.16732
0.384314
0.271895
0.375163
0.366013
0.406536
0.220915
0.366013
0.373856
0.405229
0.405229
0.356863
0.380392
0.377778
0.379085
0.368627
0.398693
0.375163
0.414379
0.394771
0.411765
0.384314
0.392157
0.381699
0.405229
0.435294
0.416993
0.44183
0.347712
0.469281
0.445752
0.44183
0.475817
0.637908
0.435294
0.452288
0.407843
0.4
0.171242
0.420915
0.491503
0.416993
0.467974
0.477124
0.465359
0.464052
0.335948
0.243137
0.339869
0.423529
0.415686
0.430065
0.426144
0.20915
0.414379
0.384314
0.377778
0.113725
0.138562
0.122876
0.111111
0.304575
0.121569
0.329412
0.215686
0.128105
0.34902
0.198693
0.137255
0.339869
0.322876
0.338562
0.318954
0.175163
0.333333
0.126797
0.4
0.130719
0.341176
0.454902
0.462745
0.186928
0.372549
0.301961
0.126797
0.624837
0.623529
0.332026
0.355556
0.402614
0.386928
0.384314
0.397386
0.419608
0.411765
0.772549
0.490196
0.467974
0.416993
0.410458
0.393464
0.188235
0.411765
0.397386
0.40915
0.394771
0.366013
0.398693
0.381699
0.290196
0.266667
0.389542
0.394771
0.379085
0.177778
0.376471
0.16732
0.162092
0.317647
0.334641
0.345098
0.330719
0.120261
0.345098
0.12549
0.279739
0.12549
0.205229
0.135948
0.359477
0.122876
0.43268
0.134641
0.351634
0.160784
0.264052
0.133333
0.138562
0.335948
0.143791
0.34902
0.4
0.266667
0.171242
0.443137
0.376471
0.383007
0.128105
0.385621
0.130719
0.337255
0.426144
0.414379
0.343791
0.352941
0.402614
0.363399
0.383007
0.416993
0.337255
0.305882
0.298039
0.371242
0.420915
0.435294
0.437908
0.406536
0.375163
0.332026
0.109804
0.329412
0.359477
0.194771
0.111111
0.109804
0.111111
0.115033
0.364706
0.286275
0.126797
0.120261
0.134641
0.115033
0.162092
0.124183
0.135948
0.122876
0.133333
0.142484
0.142484
0.139869
0.151634
0.139869
0.143791
0.179085
0.141176
0.231373
0.262745
0.273203
0.109804
0.12549
0.126797
0.14902
0.213072
0.342484
0.420915
0.121569
0.105882
0.128105
0.10719
0.142484
0.117647
0.143791
0.133333
0.120261
0.359477
0.105882
0.105882
0.117647
0.113725
0.109804
0.104575
0.109804
0.36732
0.339869
0.364706
0.326797
0.104575
0.332026
0.160784
0.105882
0.347712
0.185621
0.298039
0.108497
0.171242
0.101961
0.101961
0.121569
0.11634
0.245752
0.315033
0.389542
0.386928
0.351634
0.120261
0.163399
0.479739
0.11634
0.146405
0.20915
0.108497
0.113725
0.111111
0.111111
0.112418
0.164706
0.11634
0.252288
0.339869
0.428758
0.462745
0.43268
0.456209
0.479739
0.385621
0.216993
0.36732
0.373856
0.386928
0.394771
0.312418
0.335948
0.360784
0.403922
0.398693
0.427451
0.428758
0.416993
0.346405
0.379085
0.341176
0.347712
0.39085
0.372549
0.366013
0.379085
0.341176
0.346405
0.34902
0.380392
0.39085
0.359477
0.320261
0.318954
0.396078
0.40915
0.389542
0.373856
0.394771
0.347712
0.376471
0.356863
0.350327
0.342484
0.388235
0.39085
0.334641
0.363399
0.388235
0.415686
0.439216
0.386928
0.34902
0.39085
0.318954
0.350327
0.362092
0.413072
0.388235
0.4
0.332026
0.339869
0.43268
0.453595
0.333333
0.312418
0.393464
0.397386
0.329412
0.347712
0.407843
0.339869
0.343791
0.410458
0.392157
0.388235
0.389542
0.388235
0.384314
0.371242
0.397386
0.380392
0.322876
0.388235
0.436601
0.377778
0.354248
0.376471
0.360784
0.359477
0.333333
0.410458
0.355556
0.354248
0.444444
0.326797
0.236601
0.366013
0.350327
0.181699
0.418301
0.104575
0.115033
0.326797
0.332026
0.345098
0.351634
0.109804
0.111111
0.117647
0.176471
0.341176
0.347712
0.405229
0.260131
0.10719
0.108497
0.403922
0.0980392
0.104575
0.109804
0.104575
0.112418
0.266667
0.197386
0.121569
0.201307
0.333333
0.109804
0.313725
0.341176
0.326797
0.350327
0.333333
0.341176
0.326797
0.27451
0.373856
0.299346
0.436601
0.309804
0.413072
0.360784
0.333333
0.311111
0.301961
0.308497
0.343791
0.308497
0.305882
0.30719
0.321569
0.31634
0.30719
0.309804
0.321569
0.309804
0.347712
0.350327
0.345098
0.322876
0.392157
0.363399
0.342484
0.356863
0.350327
0.338562
0.34902
0.355556
0.360784
0.35817
0.406536
0.351634
0.362092
0.363399
0.394771
0.337255
0.360784
0.401307
0.328105
0.424837
0.346405
0.360784
0.363399
0.186928
0.383007
0.397386
0.201307
0.383007
0.360784
0.414379
0.345098
0.401307
0.402614
0.394771
0.354248
0.376471
0.372549
0.427451
0.380392
0.362092
0.351634
0.420915
0.43268
0.419608
0.350327
0.337255
0.402614
0.364706
0.398693
0.422222
0.406536
0.406536
0.352941
0.355556
0.345098
0.354248
0.296732
0.30719
0.298039
0.290196
0.29281
0.291503
0.311111
0.29281
0.30719
0.347712
0.381699
0.303268
0.377778
0.343791
0.34902
0.352941
0.339869
0.290196
0.291503
0.301961
0.282353
0.291503
0.304575
0.335948
0.291503
0.309804
0.278431
0.305882
0.317647
0.273203
0.313725
0.300654
0.343791
0.275817
0.301961
0.350327
0.321569
0.273203
0.284967
0.279739
0.291503
0.277124
0.271895
0.179085
0.164706
0.169935
0.269281
0.287582
0.281046
0.286275
0.243137
0.279739
0.315033
0.305882
0.315033
0.34902
0.335948
0.299346
0.332026
0.359477
0.303268
0.296732
0.290196
0.299346
0.30719
0.305882
0.296732
0.301961
0.28366
0.309804
0.398693
0.332026
0.317647
0.299346
0.171242
0.176471
0.168627
0.155556
0.185621
0.284967
0.173856
0.176471
0.175163
0.185621
0.186928
0.169935
0.152941
0.15817
0.16732
0.277124
0.179085
0.152941
0.14902
0.163399
0.159477
0.173856
0.152941
0.169935
0.312418
0.176471
0.16732
0.278431
0.215686
0.248366
0.180392
0.29281
0.301961
0.282353
0.25098
0.27451
0.214379
0.286275
0.265359
0.270588
0.281046
0.308497
0.28366
0.243137
0.15817
0.20915
0.360784
0.288889
0.278431
0.435294
0.291503
0.284967
0.27451
0.290196
0.295425
0.290196
0.279739
0.296732
0.339869
0.334641
0.318954
0.377778
0.328105
0.282353
0.334641
0.243137
0.326797
0.362092
0.295425
0.296732
0.369935
0.29281
0.141176
0.270588
0.184314
0.150327
0.0954248
0.122876
0.196078
0.260131
0.143791
0.28366
0.245752
0.275817
0.141176
0.294118
0.258824
0.271895
0.277124
0.305882
0.284967
0.291503
0.273203
0.28366
0.286275
0.273203
0.266667
0.298039
0.270588
0.260131
0.359477
0.304575
0.264052
0.267974
0.281046
0.300654
0.291503
0.295425
0.308497
0.239216
0.30719
0.311111
0.278431
0.269281
0.397386
0.315033
0.29281
0.423529
0.284967
0.298039
0.308497
0.469281
0.401307
0.364706
0.444444
0.385621
0.352941
0.375163
0.183007
0.278431
0.28366
0.372549
0.203922
0.305882
0.368627
0.377778
0.243137
0.301961
0.228758
0.175163
0.256209
0.141176
0.213072
0.173856
0.269281
0.162092
0.335948
0.151634
0.223529
0.366013
0.288889
0.343791
0.188235
0.277124
0.240523
0.164706
0.175163
0.312418
0.296732
0.354248
0.281046
0.135948
0.168627
0.175163
0.145098
0.150327
0.150327
0.152941
0.147712
0.275817
0.162092
0.115033
0.338562
0.193464
0.19085
0.288889
0.326797
0.143791
0.2
0.169935
0.235294
0.356863
0.151634
0.364706
0.150327
0.324183
0.322876
0.403922
0.159477
0.183007
0.202614
0.278431
0.133333
0.145098
0.0941176
0.145098
0.256209
0.180392
0.271895
0.262745
0.324183
0.137255
0.346405
0.188235
0.203922
0.309804
0.240523
0.266667
0.257516
0.31634
0.305882
0.300654
0.271895
0.347712
0.383007
0.277124
0.332026
0.245752
0.270588
0.343791
0.296732
0.304575
0.449673
0.354248
0.288889
0.366013
0.380392
0.215686
0.376471
0.363399
0.346405
0.36732
0.326797
0.478431
0.419608
0.308497
0.369935
0.35817
0.359477
0.384314
0.360784
0.354248
0.342484
0.262745
0.354248
0.376471
0.317647
0.415686
0.243137
0.333333
0.260131
0.34902
0.35817
0.318954
0.295425
0.299346
0.270588
0.388235
0.345098
0.315033
0.288889
0.141176
0.341176
0.202614
0.363399
0.30719
0.363399
0.36732
0.25098
0.377778
0.220915
0.333333
0.368627
0.338562
0.210458
0.384314
0.335948
0.334641
0.373856
0.282353
0.296732
0.40915
0.317647
0.351634
0.343791
0.363399
0.362092
0.375163
0.32549
0.413072
0.414379
0.338562
0.500654
0.355556
0.309804
0.371242
0.311111
0.335948
0.356863
0.346405
0.313725
0.364706
0.369935
0.275817
0.192157
0.352941
0.416993
0.393464
0.376471
0.346405
0.364706
0.381699
0.384314
0.405229
0.371242
0.380392
0.388235
0.375163
0.379085
0.389542
0.334641
0.279739
0.380392
0.152941
0.384314
0.330719
0.350327
0.388235
0.373856
0.318954
0.277124
0.266667
0.299346
0.156863
0.162092
0.192157
0.347712
0.366013
0.27451
0.351634
0.339869
0.401307
0.456209
0.373856
0.385621
0.423529
0.282353
0.266667
0.403922
0.433987
0.313725
0.14902
0.281046
0.213072
0.147712
0.269281
0.152941
0.339869
0.308497
0.100654
0.356863
0.31634
0.322876
0.311111
0.326797
0.333333
0.342484
0.321569
0.332026
0.318954
0.324183
0.326797
0.341176
0.35817
0.347712
0.32549
0.30719
0.341176
0.342484
0.311111
0.301961
0.322876
0.287582
0.311111
0.317647
0.296732
0.296732
0.216993
0.51634
0.430065
0.291503
0.315033
0.291503
0.403922
0.356863
0.279739
0.300654
0.437908
0.318954
0.28366
0.295425
0.31634
0.371242
0.342484
0.320261
0.294118
0.299346
0.333333
0.424837
0.333333
0.433987
0.333333
0.300654
0.24183
0.32549
0.416993
0.394771
0.279739
0.335948
0.291503
0.341176
0.347712
0.198693
0.328105
0.277124
0.321569
0.236601
0.304575
0.197386
0.270588
0.236601
0.294118
0.317647
0.281046
0.288889
0.301961
0.329412
0.31634
0.275817
0.420915
0.298039
0.321569
0.288889
0.320261
0.311111
0.381699
0.440523
0.315033
0.413072
0.427451
0.376471
0.372549
0.318954
0.427451
0.30719
0.220915
0.368627
0.394771
0.282353
0.227451
0.151634
0.156863
0.339869
0.235294
0.254902
0.28366
0.309804
0.309804
0.278431
0.27451
0.247059
0.269281
0.281046
0.275817
0.308497
0.281046
0.31634
0.311111
0.301961
0.326797
0.30719
0.334641
0.312418
0.301961
0.320261
0.339869
0.342484
0.32549
0.333333
0.335948
0.352941
0.333333
0.355556
0.338562
0.355556
0.354248
0.335948
0.343791
0.343791
0.346405
0.35817
0.342484
0.360784
0.36732
0.338562
0.346405
0.351634
0.354248
0.324183
0.270588
0.304575
0.431373
0.305882
0.282353
0.271895
0.300654
0.27451
0.295425
0.275817
0.294118
0.304575
0.298039
0.300654
0.305882
0.288889
0.30719
0.32549
0.362092
0.333333
0.321569
0.364706
0.368627
0.31634
0.385621
0.311111
0.437908
0.291503
0.333333
0.394771
0.318954
0.318954
0.381699
0.326797
0.305882
0.29281
0.288889
0.279739
0.312418
0.330719
0.313725
0.342484
0.29281
0.377778
0.305882
0.28366
0.299346
0.298039
0.29281
0.29281
0.286275
0.298039
0.279739
0.305882
0.311111
0.295425
0.317647
0.31634
0.346405
0.322876
0.291503
0.245752
0.351634
0.146405
0.322876
0.141176
0.14902
0.355556
0.333333
0.368627
0.347712
0.415686
0.347712
0.252288
0.100654
0.10719
0.113725
0.096732
0.108497
0.108497
0.103268
0.355556
0.113725
0.355556
0.363399
0.420915
0.305882
0.407843
0.356863
0.332026
0.351634
0.388235
0.333333
0.334641
0.350327
0.444444
0.381699
0.397386
0.363399
0.31634
0.364706
0.470588
0.439216
0.383007
0.343791
0.345098
0.257516
0.397386
0.0954248
0.193464
0.180392
0.392157
0.117647
0.320261
0.249673
0.333333
0.362092
0.179085
0.105882
0.233987
0.254902
0.100654
0.096732
0.103268
0.168627
0.315033
0.345098
0.184314
0.360784
0.31634
0.330719
0.197386
0.362092
0.371242
0.342484
0.385621
0.413072
0.354248
0.389542
0.345098
0.355556
0.329412
0.426144
0.39085
0.334641
0.330719
0.326797
0.437908
0.332026
0.48366
0.411765
0.427451
0.359477
0.339869
0.34902
0.427451
0.363399
0.383007
0.363399
0.322876
0.346405
0.318954
0.372549
0.312418
0.309804