# vtk DataFile Version 1.0
Unstructured Grid Example
ASCII

DATASET UNSTRUCTURED_GRID
POINTS 17261 float
28 513 0
32 513 0
33 513 0
34 513 0
38 513 0
39 513 0
42 513 0
44 513 0
59 513 0
60 513 0
61 513 0
63 513 0
67 513 0
69 513 0
73 513 0
74 513 0
106 513 0
108 513 0
109 513 0
129 513 0
135 513 0
136 513 0
154 513 0
155 513 0
156 513 0
160 513 0
161 513 0
165 513 0
198 513 0
319 513 0
322 513 0
457 513 0
28 512 0
29 512 0
33 512 0
34 512 0
35 512 0
39 512 0
42 512 0
43 512 0
44 512 0
59 512 0
60 512 0
63 512 0
67 512 0
69 512 0
70 512 0
73 512 0
79 512 0
80 512 0
81 512 0
87 512 0
88 512 0
106 512 0
125 512 0
126 512 0
127 512 0
128 512 0
129 512 0
154 512 0
160 512 0
161 512 0
164 512 0
165 512 0
198 512 0
318 512 0
319 512 0
321 512 0
322 512 0
457 512 0
29 511 0
33 511 0
34 511 0
35 511 0
36 511 0
39 511 0
40 511 0
42 511 0
43 511 0
44 511 0
63 511 0
67 511 0
69 511 0
70 511 0
73 511 0
78 511 0
79 511 0
80 511 0
81 511 0
82 511 0
84 511 0
85 511 0
86 511 0
87 511 0
88 511 0
89 511 0
90 511 0
91 511 0
106 511 0
125 511 0
126 511 0
127 511 0
128 511 0
154 511 0
155 511 0
164 511 0
198 511 0
199 511 0
317 511 0
318 511 0
320 511 0
321 511 0
457 511 0
17 510 0
18 510 0
19 510 0
20 510 0
29 510 0
34 510 0
36 510 0
40 510 0
41 510 0
62 510 0
63 510 0
67 510 0
69 510 0
73 510 0
78 510 0
79 510 0
80 510 0
81 510 0
82 510 0
84 510 0
85 510 0
86 510 0
87 510 0
88 510 0
89 510 0
90 510 0
91 510 0
106 510 0
107 510 0
125 510 0
126 510 0
127 510 0
155 510 0
156 510 0
161 510 0
162 510 0
163 510 0
164 510 0
199 510 0
317 510 0
320 510 0
321 510 0
457 510 0
16 509 0
17 509 0
20 509 0
21 509 0
29 509 0
30 509 0
34 509 0
36 509 0
37 509 0
41 509 0
62 509 0
66 509 0
67 509 0
69 509 0
73 509 0
107 509 0
127 509 0
156 509 0
157 509 0
161 509 0
162 509 0
163 509 0
199 509 0
316 509 0
317 509 0
319 509 0
320 509 0
457 509 0
16 508 0
18 508 0
19 508 0
20 508 0
21 508 0
22 508 0
23 508 0
30 508 0
34 508 0
35 508 0
36 508 0
37 508 0
38 508 0
41 508 0
48 508 0
49 508 0
50 508 0
53 508 0
54 508 0
55 508 0
62 508 0
66 508 0
68 508 0
69 508 0
72 508 0
73 508 0
92 508 0
93 508 0
107 508 0
127 508 0
128 508 0
129 508 0
130 508 0
131 508 0
132 508 0
133 508 0
134 508 0
135 508 0
156 508 0
157 508 0
163 508 0
164 508 0
165 508 0
194 508 0
195 508 0
196 508 0
198 508 0
199 508 0
315 508 0
316 508 0
318 508 0
319 508 0
457 508 0
16 507 0
18 507 0
20 507 0
21 507 0
23 507 0
30 507 0
35 507 0
36 507 0
38 507 0
40 507 0
41 507 0
48 507 0
50 507 0
51 507 0
53 507 0
54 507 0
55 507 0
62 507 0
63 507 0
64 507 0
65 507 0
66 507 0
68 507 0
72 507 0
77 507 0
78 507 0
79 507 0
80 507 0
81 507 0
82 507 0
83 507 0
84 507 0
87 507 0
88 507 0
89 507 0
90 507 0
91 507 0
92 507 0
93 507 0
94 507 0
95 507 0
107 507 0
130 507 0
131 507 0
132 507 0
133 507 0
134 507 0
135 507 0
136 507 0
137 507 0
142 507 0
143 507 0
144 507 0
145 507 0
146 507 0
147 507 0
155 507 0
156 507 0
164 507 0
165 507 0
166 507 0
167 507 0
168 507 0
169 507 0
170 507 0
171 507 0
172 507 0
173 507 0
174 507 0
175 507 0
176 507 0
177 507 0
178 507 0
179 507 0
180 507 0
181 507 0
182 507 0
183 507 0
184 507 0
185 507 0
186 507 0
187 507 0
188 507 0
189 507 0
190 507 0
191 507 0
192 507 0
193 507 0
194 507 0
195 507 0
196 507 0
197 507 0
198 507 0
315 507 0
318 507 0
319 507 0
457 507 0
16 506 0
18 506 0
19 506 0
20 506 0
21 506 0
23 506 0
30 506 0
31 506 0
36 506 0
37 506 0
38 506 0
39 506 0
40 506 0
43 506 0
44 506 0
45 506 0
48 506 0
49 506 0
50 506 0
51 506 0
63 506 0
64 506 0
67 506 0
68 506 0
72 506 0
76 506 0
77 506 0
84 506 0
85 506 0
87 506 0
95 506 0
107 506 0
137 506 0
138 506 0
141 506 0
142 506 0
143 506 0
144 506 0
145 506 0
147 506 0
148 506 0
149 506 0
150 506 0
151 506 0
152 506 0
153 506 0
154 506 0
155 506 0
170 506 0
171 506 0
172 506 0
314 506 0
315 506 0
317 506 0
318 506 0
457 506 0
15 505 0
16 505 0
19 505 0
20 505 0
22 505 0
23 505 0
31 505 0
32 505 0
37 505 0
42 505 0
43 505 0
45 505 0
46 505 0
47 505 0
56 505 0
57 505 0
58 505 0
59 505 0
60 505 0
61 505 0
62 505 0
67 505 0
71 505 0
72 505 0
76 505 0
85 505 0
87 505 0
95 505 0
107 505 0
137 505 0
138 505 0
141 505 0
143 505 0
144 505 0
145 505 0
170 505 0
171 505 0
172 505 0
177 505 0
178 505 0
314 505 0
317 505 0
457 505 0
15 504 0
16 504 0
21 504 0
22 504 0
32 504 0
33 504 0
37 504 0
42 504 0
47 504 0
48 504 0
49 504 0
50 504 0
51 504 0
52 504 0
53 504 0
54 504 0
55 504 0
56 504 0
62 504 0
67 504 0
71 504 0
76 504 0
77 504 0
85 504 0
87 504 0
95 504 0
107 504 0
138 504 0
139 504 0
140 504 0
141 504 0
142 504 0
143 504 0
144 504 0
145 504 0
146 504 0
147 504 0
177 504 0
178 504 0
313 504 0
314 504 0
316 504 0
317 504 0
457 504 0
11 503 0
12 503 0
16 503 0
17 503 0
19 503 0
20 503 0
21 503 0
22 503 0
33 503 0
34 503 0
36 503 0
37 503 0
42 503 0
43 503 0
61 503 0
62 503 0
67 503 0
68 503 0
69 503 0
70 503 0
71 503 0
77 503 0
85 503 0
87 503 0
95 503 0
107 503 0
142 503 0
143 503 0
144 503 0
145 503 0
146 503 0
147 503 0
312 503 0
313 503 0
315 503 0
316 503 0
457 503 0
11 502 0
12 502 0
17 502 0
18 502 0
19 502 0
20 502 0
21 502 0
34 502 0
35 502 0
36 502 0
43 502 0
44 502 0
45 502 0
59 502 0
60 502 0
61 502 0
67 502 0
68 502 0
69 502 0
70 502 0
77 502 0
85 502 0
87 502 0
95 502 0
107 502 0
142 502 0
143 502 0
144 502 0
145 502 0
146 502 0
173 502 0
174 502 0
175 502 0
312 502 0
313 502 0
315 502 0
457 502 0
15 501 0
16 501 0
18 501 0
19 501 0
21 501 0
22 501 0
38 501 0
39 501 0
40 501 0
41 501 0
42 501 0
45 501 0
46 501 0
47 501 0
57 501 0
58 501 0
59 501 0
62 501 0
63 501 0
64 501 0
65 501 0
66 501 0
77 501 0
85 501 0
87 501 0
95 501 0
107 501 0
142 501 0
143 501 0
144 501 0
171 501 0
172 501 0
173 501 0
175 501 0
176 501 0
179 501 0
180 501 0
181 501 0
311 501 0
312 501 0
314 501 0
315 501 0
457 501 0
15 500 0
16 500 0
17 500 0
18 500 0
20 500 0
21 500 0
22 500 0
23 500 0
24 500 0
38 500 0
42 500 0
43 500 0
44 500 0
47 500 0
48 500 0
49 500 0
50 500 0
51 500 0
52 500 0
53 500 0
54 500 0
55 500 0
56 500 0
57 500 0
60 500 0
61 500 0
62 500 0
66 500 0
67 500 0
77 500 0
85 500 0
87 500 0
95 500 0
107 500 0
141 500 0
142 500 0
143 500 0
144 500 0
168 500 0
169 500 0
170 500 0
171 500 0
173 500 0
174 500 0
175 500 0
176 500 0
177 500 0
178 500 0
179 500 0
181 500 0
182 500 0
183 500 0
310 500 0
311 500 0
313 500 0
314 500 0
457 500 0
16 499 0
18 499 0
19 499 0
20 499 0
21 499 0
22 499 0
24 499 0
38 499 0
39 499 0
44 499 0
45 499 0
46 499 0
59 499 0
60 499 0
66 499 0
67 499 0
77 499 0
85 499 0
86 499 0
87 499 0
95 499 0
107 499 0
141 499 0
143 499 0
157 499 0
158 499 0
164 499 0
165 499 0
166 499 0
168 499 0
169 499 0
172 499 0
173 499 0
175 499 0
183 499 0
310 499 0
313 499 0
457 499 0
3 498 0
4 498 0
5 498 0
16 498 0
17 498 0
18 498 0
21 498 0
22 498 0
24 498 0
39 498 0
46 498 0
47 498 0
48 498 0
49 498 0
50 498 0
51 498 0
52 498 0
53 498 0
54 498 0
55 498 0
56 498 0
57 498 0
58 498 0
59 498 0
65 498 0
66 498 0
77 498 0
78 498 0
80 498 0
81 498 0
82 498 0
83 498 0
84 498 0
85 498 0
86 498 0
87 498 0
88 498 0
89 498 0
90 498 0
91 498 0
92 498 0
93 498 0
94 498 0
95 498 0
107 498 0
135 498 0
136 498 0
137 498 0
138 498 0
139 498 0
140 498 0
141 498 0
142 498 0
143 498 0
157 498 0
158 498 0
164 498 0
165 498 0
166 498 0
167 498 0
168 498 0
169 498 0
170 498 0
171 498 0
172 498 0
173 498 0
174 498 0
175 498 0
183 498 0
309 498 0
310 498 0
312 498 0
313 498 0
457 498 0
3 497 0
4 497 0
5 497 0
21 497 0
23 497 0
24 497 0
30 497 0
31 497 0
39 497 0
40 497 0
41 497 0
63 497 0
64 497 0
65 497 0
78 497 0
79 497 0
80 497 0
98 497 0
99 497 0
100 497 0
101 497 0
107 497 0
135 497 0
136 497 0
137 497 0
138 497 0
139 497 0
140 497 0
141 497 0
142 497 0
143 497 0
164 497 0
165 497 0
166 497 0
167 497 0
169 497 0
170 497 0
171 497 0
172 497 0
173 497 0
180 497 0
181 497 0
182 497 0
183 497 0
184 497 0
308 497 0
309 497 0
311 497 0
312 497 0
457 497 0
3 496 0
5 496 0
6 496 0
7 496 0
21 496 0
23 496 0
29 496 0
30 496 0
31 496 0
32 496 0
33 496 0
41 496 0
42 496 0
43 496 0
44 496 0
61 496 0
62 496 0
63 496 0
73 496 0
74 496 0
75 496 0
98 496 0
101 496 0
102 496 0
107 496 0
137 496 0
138 496 0
139 496 0
140 496 0
158 496 0
159 496 0
160 496 0
161 496 0
167 496 0
168 496 0
169 496 0
172 496 0
173 496 0
175 496 0
176 496 0
177 496 0
178 496 0
179 496 0
180 496 0
181 496 0
183 496 0
184 496 0
185 496 0
186 496 0
308 496 0
310 496 0
311 496 0
456 496 0
457 496 0
3 495 0
7 495 0
21 495 0
22 495 0
23 495 0
29 495 0
33 495 0
43 495 0
44 495 0
45 495 0
46 495 0
47 495 0
58 495 0
59 495 0
60 495 0
61 495 0
73 495 0
75 495 0
76 495 0
98 495 0
99 495 0
101 495 0
102 495 0
107 495 0
108 495 0
139 495 0
140 495 0
154 495 0
155 495 0
156 495 0
157 495 0
158 495 0
160 495 0
161 495 0
164 495 0
165 495 0
167 495 0
168 495 0
169 495 0
170 495 0
171 495 0
172 495 0
175 495 0
176 495 0
177 495 0
178 495 0
183 495 0
184 495 0
185 495 0
186 495 0
187 495 0
188 495 0
200 495 0
201 495 0
202 495 0
203 495 0
204 495 0
205 495 0
307 495 0
308 495 0
310 495 0
328 495 0
329 495 0
330 495 0
456 495 0
457 495 0
3 494 0
4 494 0
5 494 0
7 494 0
29 494 0
30 494 0
33 494 0
47 494 0
48 494 0
49 494 0
50 494 0
51 494 0
52 494 0
53 494 0
54 494 0
55 494 0
56 494 0
57 494 0
58 494 0
59 494 0
73 494 0
74 494 0
75 494 0
76 494 0
99 494 0
100 494 0
101 494 0
108 494 0
138 494 0
139 494 0
140 494 0
153 494 0
154 494 0
155 494 0
156 494 0
157 494 0
161 494 0
163 494 0
164 494 0
165 494 0
166 494 0
167 494 0
168 494 0
178 494 0
179 494 0
180 494 0
181 494 0
182 494 0
183 494 0
185 494 0
186 494 0
187 494 0
188 494 0
189 494 0
190 494 0
191 494 0
200 494 0
205 494 0
306 494 0
307 494 0
309 494 0
310 494 0
328 494 0
329 494 0
330 494 0
456 494 0
5 493 0
6 493 0
7 493 0
29 493 0
30 493 0
31 493 0
32 493 0
33 493 0
74 493 0
75 493 0
108 493 0
138 493 0
140 493 0
153 493 0
154 493 0
155 493 0
156 493 0
157 493 0
160 493 0
161 493 0
162 493 0
163 493 0
170 493 0
171 493 0
172 493 0
187 493 0
188 493 0
189 493 0
190 493 0
191 493 0
200 493 0
201 493 0
202 493 0
203 493 0
204 493 0
205 493 0
306 493 0
308 493 0
309 493 0
456 493 0
457 493 0
108 492 0
138 492 0
139 492 0
140 492 0
[...]
CELL_DATA 17261
COLOR_SCALARS lut 1
0.0349295
0.0360976
0.0364943
0.036891
0.0376647
0.0374955
0.036194
0.0349715
0.0322592
0.0325672
0.032893
0.0335951
0.0353197
0.0362646
0.0378163
0.0382456
0.0435935
0.0451438
0.0461017
0.0415191
0.0352042
0.0344597
0.0328032
0.0329486
0.0330823
0.0334634
0.0334755
0.0328361
0.04807
0.0631463
0.0670059
0.0786363
0.0355456
0.0357024
0.0368078
0.0371448
0.0374493
0.0376062
0.0363818
0.0358291
0.0352505
0.0327939
0.0330871
0.0340592
0.035677
0.0365563
0.0369504
0.0379801
0.0415745
0.0423703
0.043121
0.0443162
0.0438978
0.0454173
0.0487679
0.0474989
0.0461928
0.0448615
0.0435266
0.0337604
0.0343345
0.0343389
0.0339589
0.0337131
0.0500305
0.0654611
0.0662072
0.0685915
0.0702203
0.0828554
0.0362824
0.0371351
0.0374106
0.0376601
0.0378455
0.0377234
0.0374317
0.0365787
0.0360704
0.0355396
0.0345518
0.0360603
0.0368703
0.0372296
0.0381568
0.0407422
0.0414796
0.0422292
0.0429408
0.0435634
0.0443747
0.044511
0.0444625
0.0442525
0.0439236
0.0435249
0.0431076
0.042721
0.0473251
0.0513669
0.0499964
0.0485831
0.0471421
0.0347593
0.0348669
0.0348699
0.0520997
0.0546976
0.0682897
0.0687448
0.0706377
0.0720277
0.0874728
0.0397901
0.0392801
0.0387853
0.0383155
0.0368698
0.0376863
0.0380205
0.0375726
0.0372096
0.0347638
0.0350678
0.0364681
0.0372064
0.038349
0.0407034
0.0413896
0.0420915
0.0427623
0.0433553
0.0441586
0.0443231
0.0443255
0.0441878
0.0439494
0.0436558
0.0433539
0.0430886
0.0492733
0.0502272
0.054139
0.0526626
0.0511352
0.035873
0.0359597
0.0361918
0.0361263
0.0359977
0.0358108
0.056903
0.0717668
0.0742645
0.0757074
0.0924621
0.0412902
0.0407422
0.0391933
0.0387438
0.0374552
0.0374891
0.0379715
0.0382069
0.0382292
0.0373914
0.0353172
0.0365586
0.036902
0.0375678
0.0385627
0.0522607
0.053825
0.0369692
0.03704
0.0371597
0.0370898
0.0369598
0.0591372
0.0752811
0.0754469
0.0768944
0.0780982
0.0977902
0.0421864
0.041071
0.0405323
0.040018
0.0395488
0.0391446
0.0388167
0.038014
0.0382671
0.0383558
0.038409
0.0384018
0.0383168
0.0375945
0.0349599
0.0346768
0.0344511
0.0341419
0.0341665
0.0342551
0.0358961
0.0370576
0.0376763
0.0379622
0.0386087
0.0388086
0.0438884
0.0440398
0.054245
0.0566287
0.0548155
0.0529853
0.051171
0.0494026
0.047706
0.0461034
0.0446142
0.0432555
0.0379935
0.0380563
0.0379467
0.0377636
0.0375427
0.0502918
0.0520049
0.0539367
0.0585847
0.0613623
0.079285
0.0790759
0.0798983
0.0808446
0.10342
0.0429773
0.0418455
0.0407686
0.0402861
0.0395258
0.0385267
0.0386163
0.0386317
0.0385025
0.0381095
0.0378297
0.0354353
0.0349671
0.0348184
0.0347027
0.0347397
0.0348398
0.0365125
0.0367794
0.0370494
0.0373234
0.0376014
0.0381543
0.0389414
0.0402847
0.0407643
0.0413002
0.0418611
0.0424103
0.0429134
0.0433434
0.0436826
0.0441337
0.0441521
0.0441563
0.0441791
0.0442523
0.0444045
0.0446596
0.0450347
0.0455382
0.0561348
0.0536532
0.051738
0.0498933
0.048144
0.0465124
0.0450183
0.0436774
0.0424999
0.0390226
0.0387487
0.0385793
0.0384918
0.0384666
0.038487
0.0389749
0.0390325
0.0387818
0.0385671
0.0383312
0.0380881
0.0378519
0.0376365
0.0374554
0.0373205
0.0372411
0.0372247
0.0372751
0.0373953
0.0375885
0.037857
0.0382016
0.0386205
0.0391086
0.0396581
0.0402616
0.040913
0.0416097
0.0423526
0.0431451
0.0439927
0.0449017
0.0458797
0.0469375
0.0480893
0.0493532
0.0507507
0.052307
0.0540502
0.0560116
0.058225
0.0607235
0.0831486
0.0839258
0.0849187
0.10931
0.0436424
0.0425112
0.0419575
0.0414257
0.0409372
0.0401622
0.0390177
0.0389469
0.0388778
0.0388248
0.0387222
0.0385652
0.038357
0.0375231
0.0372031
0.0368727
0.0359399
0.0356981
0.0355085
0.0353755
0.0374428
0.0376997
0.038457
0.0386967
0.0393425
0.0401227
0.0404814
0.0436709
0.0439324
0.0442431
0.04635
0.0578899
0.0440503
0.0429375
0.0406558
0.0402179
0.039917
0.03973
0.0396316
0.0396148
0.0396619
0.0397247
0.0397891
0.0398468
0.0398965
0.0399413
0.0399858
0.0400325
0.0385753
0.038456
0.038395
0.0876477
0.0870984
0.0873365
0.0880404
0.115419
0.0447305
0.0441743
0.0425094
0.0419799
0.0410675
0.0407161
0.0393768
0.0392998
0.0390834
0.0381897
0.0379248
0.0373442
0.0370419
0.0367494
0.0362983
0.0365356
0.0368061
0.0370924
0.0373797
0.0376581
0.0379247
0.0391135
0.0397439
0.0398276
0.0404534
0.0440475
0.0444479
0.0471566
0.0594788
0.0456106
0.0443938
0.0418993
0.0410955
0.040892
0.0407834
0.0397489
0.0396508
0.0396129
0.0405481
0.0409819
0.0915889
0.0914633
0.121708
0.0451151
0.044579
0.0419523
0.0415333
0.0396794
0.0396014
0.0393747
0.0386073
0.0373225
0.0370761
0.036869
0.0367116
0.0366098
0.0365675
0.0365879
0.0366734
0.0368234
0.0370329
0.0387532
0.0398655
0.0403593
0.04088
0.0411556
0.0442732
0.0447527
0.0479614
0.0608851
0.0458356
0.0447299
0.0438324
0.0431338
0.0426198
0.042268
0.0420491
0.041931
0.0418857
0.0418903
0.0420114
0.0424902
0.0964516
0.0955709
0.0951978
0.0956277
0.128139
0.0469003
0.0466576
0.0448702
0.044348
0.0432976
0.0427909
0.0423234
0.0419154
0.0399466
0.0398754
0.0397623
0.0396976
0.0390802
0.0388932
0.0393975
0.0396787
0.040724
0.0408676
0.0409783
0.0410475
0.0410787
0.0416421
0.0446119
0.045161
0.0487746
0.0621135
0.043791
0.0434164
0.0431831
0.0430558
0.0430034
0.0430007
0.101667
0.100384
0.0992555
0.0993472
0.134678
0.0469261
0.0467243
0.0445691
0.0440632
0.0435585
0.0430698
0.0426186
0.0402082
0.0401515
0.0401021
0.0394611
0.0392873
0.039085
0.0397356
0.0400845
0.04041
0.0416938
0.041806
0.0418812
0.0419127
0.0422293
0.0450665
0.0456777
0.0496145
0.0631865
0.0449152
0.04452
0.0442735
0.0441371
0.0440767
0.0437953
0.0440155
0.0443178
0.105534
0.104351
0.103385
0.141296
0.0456535
0.0451965
0.0442393
0.0437562
0.0428559
0.0424793
0.0404064
0.040372
0.0403272
0.0402674
0.0401884
0.0397786
0.0395836
0.0393816
0.0400249
0.040403
0.040792
0.0418314
0.0421012
0.042328
0.0425134
0.0426616
0.0429184
0.0456442
0.0463129
0.0505089
0.0641412
0.0459732
0.04556
0.0453015
0.0450452
0.0451691
0.045361
0.0459757
0.0464075
0.0481955
0.0489312
0.0497134
0.110997
0.109439
0.10775
0.107561
0.147965
0.0457058
0.0452774
0.0448294
0.0443709
0.0434662
0.0430551
0.0426969
0.0424008
0.042166
0.040856
0.0408216
0.0407616
0.0406656
0.0401895
0.0400261
0.0398961
0.0398148
0.0397924
0.0398359
0.0399501
0.0401376
0.0403973
0.0407229
0.041102
0.0423491
0.0427262
0.0430581
0.0438773
0.0439669
0.0437104
0.0463562
0.0470816
0.0514939
0.0650244
0.0475836
0.0469525
0.0465234
0.0462538
0.046346
0.0464134
0.0465058
0.0466365
0.0470653
0.0473833
0.0477776
0.0482521
0.0488061
0.049435
0.0501305
0.0516611
0.0524607
0.0532637
0.116742
0.11483
0.112442
0.111924
0.154665
0.0453289
0.0444771
0.0440439
0.0436236
0.0432356
0.0428972
0.0423942
0.0413351
0.0413901
0.0414342
0.0413376
0.0412059
0.0431714
0.0436151
0.0451899
0.0452548
0.044606
0.0472137
0.0476012
0.0479988
0.0526089
0.0658885
0.0485008
0.047405
0.0463256
0.0464111
0.047298
0.047444
0.0475872
0.0478688
0.0480185
0.0486361
0.048942
0.0497573
0.0552633
0.120491
0.11661
0.161379
0.041795
0.0428201
0.0437536
0.0453639
0.0449748
0.0445731
0.0434145
0.0430977
0.0426232
0.0419412
0.0420963
0.0419844
0.0418797
0.0418049
0.0417772
0.041809
0.0419087
0.0420818
0.0423314
0.0426561
0.0430498
0.0434993
0.0439841
0.0444785
0.0464812
0.0465822
0.045603
0.0457676
0.0463164
0.0466609
0.0470303
0.047416
0.0478138
0.0482223
0.0486414
0.0490744
0.0495311
0.0500196
0.0505464
0.0511151
0.051729
0.0523929
0.053112
0.0538901
0.0667861
0.0591314
0.0568016
0.0547342
0.0529501
0.0514585
0.0502574
0.0493342
0.0486629
0.0482047
0.0470858
0.0472215
0.0485879
0.0488345
0.0490793
0.0493202
0.0495582
0.0497993
0.0500532
0.0503324
0.0506508
0.0510213
0.0514517
0.0519458
0.057393
0.126378
0.124317
0.121595
0.120891
0.168096
0.041569
0.0425765
0.0434969
0.0436062
0.0430683
0.0428697
0.0420818
0.0419925
0.0425092
0.0426708
0.0428218
0.0475417
0.0477844
0.0479467
0.046843
0.0470784
0.0473792
0.0579442
0.0588532
0.0597666
0.0606804
0.0677624
0.0601419
0.0577517
0.0556297
0.0537982
0.052267
0.0510347
0.0500879
0.0493987
0.0489261
0.0500277
0.0503878
0.050746
0.0510978
0.0517839
0.0521311
0.0524958
0.0528922
0.0533335
0.0577603
0.0584564
0.0591081
0.0597
0.0602296
0.132441
0.130109
0.126841
0.125874
0.17481
0.0413502
0.0432469
0.0440486
0.0447331
0.0438213
0.043332
0.0424874
0.0423842
0.042305
0.0422587
0.0422544
0.0435158
0.0437023
0.0438514
0.0439513
0.0482845
0.0487029
0.0490393
0.0482573
0.0480312
0.0478751
0.059547
0.0621271
0.0629916
0.0688485
0.0564185
0.0545489
0.0529856
0.0517277
0.0490169
0.0493755
0.0497833
0.0502247
0.0530877
0.053549
0.0540005
0.0553911
0.0559106
0.0570827
0.0577351
0.0584228
0.0591317
0.059844
0.0605355
0.0611794
0.0622366
0.0626328
0.0629513
0.0632125
0.136056
0.1323
0.131096
0.181528
0.181517
0.0411381
0.0444774
0.0440662
0.043834
0.043634
0.0428168
0.0426161
0.0446694
0.0448286
0.0449312
0.0449846
0.0450092
0.0481172
0.0486973
0.0492547
0.0497611
0.0495164
0.0490861
0.0490061
0.0613478
0.062173
0.0637756
0.0645721
0.0700596
0.0718304
0.0536033
0.0523261
0.0489617
0.0490952
0.049321
0.0496395
0.0500438
0.0510543
0.0516269
0.0534624
0.0540891
0.0553177
0.0559067
0.0564785
0.0570401
0.0576026
0.0581803
0.0601018
0.0608069
0.0615308
0.0622564
0.0650514
0.0652979
0.065441
0.0655061
0.0655237
0.0655219
0.0746262
0.0774154
0.080713
0.0845288
0.088866
0.0937215
0.142095
0.139778
0.136501
0.147831
0.150771
0.154202
0.188178
0.188217
0.0409438
0.0419037
0.0427808
0.0442337
0.0431841
0.0430824
0.042993
0.0460619
0.0461355
0.0462251
0.0463495
0.0465235
0.0467577
0.047059
0.0474314
0.0478743
0.0483819
0.0489416
0.0495326
0.0501283
0.0507397
0.0504627
0.0502669
0.0501739
0.0641151
0.0648777
0.0656118
0.0730835
0.0557045
0.0541028
0.0528137
0.0495033
0.0496331
0.0498615
0.0501967
0.0506371
0.0531962
0.0547214
0.0555027
0.0562853
0.0570587
0.0578129
0.0585419
0.0657302
0.0664285
0.0670518
0.0675682
0.0679506
0.0681829
0.0682198
0.0680724
0.0678613
0.0676206
0.0673793
0.0671652
0.0670064
0.0743425
0.0930045
0.148162
0.145668
0.142027
0.140862
0.151725
0.154554
0.15789
0.194817
0.0425939
0.0433577
0.0440199
0.0435918
0.0434823
0.0434029
0.0433651
0.0433812
0.05157
0.0513574
0.0744357
0.0560717
0.0531723
0.0500887
0.0503185
0.0506633
0.0511302
0.0517154
0.0540392
0.0549377
0.0558681
0.0568177
0.0631387
0.0639396
0.0647361
0.0704971
0.0700041
0.0695053
0.0690336
0.0686215
0.0742199
0.076771
0.0798601
0.0834975
0.0876855
0.0924196
0.15155
0.147605
0.14629
0.201435
0.201571
0.0758643
0.0562741
0.0546737
0.053386
0.0504306
0.0506628
0.0521157
0.0528684
0.0537391
0.0547079
0.0557515
0.0579773
0.0666722
0.0676085
0.0685286
0.0712013
0.0705255
0.0695116
0.0692532
0.0692209
0.0694667
0.15735
0.155033
0.151722
0.150706
0.208023
0.208207
0.0773337
0.0563008
0.0547187
0.0534466
0.0508754
0.0540909
0.0551622
0.0589167
0.0602682
0.0727458
0.0712141
0.0707141
0.0704541
0.0704871
0.0728859
0.0746254
0.163
0.160586
0.157081
0.155972
0.214569
0.214799
0.0442488
0.044687
0.0457459
0.0457965
0.0458529
0.0459112
0.0459636
0.0460021
0.0460203
0.0460133
0.0459757
0.0459044
0.0457976
0.0456551
0.0454812
0.0452874
0.0450893
0.0449037
0.0447458
0.0446316
0.0445778
0.044598
0.0447008
0.0448918
0.0787987
0.0580079
0.0561524
0.0546022
0.0509569
0.0513051
0.0517912
0.0524345
0.0532478
0.056673
0.0580812
0.0595776
0.0611341
0.0752906
0.0741813
0.0732284
0.0724784
0.0719811
0.0717906
0.0719625
0.0736048
0.0751783
0.168433
0.165944
0.16229
0.161111
0.221055
0.221333
0.0442821
0.0447137
0.0450687
0.0453482
0.0455581
0.0459412
0.0451717
0.0454277
0.0802095
0.0576438
0.0543369
0.0512652
0.0517394
0.0523722
0.0531826
0.0541825
0.0733709
0.0733201
0.171037
0.166041
0.227465
0.0451693
0.0456933
0.0460478
0.0462162
0.045618
0.0602334
0.0615599
0.0815136
0.0571195
0.0539435
0.0505983
0.0508123
0.0511347
0.0515879
0.0529845
0.0539699
0.0752062
0.0749182
0.0750705
0.175796
0.173642
0.170672
0.169833
0.233775
0.0449653
0.0453291
0.0458899
0.0461127
0.0463251
0.045744
0.0590989
0.0604422
0.0619007
0.0826558
0.056462
0.0534482
0.0504446
0.0506391
0.0772651
0.0767248
0.0766342
0.0770483
0.180163
0.17796
0.174922
0.174063
0.239957
0.0447338
0.0451638
0.0458534
0.0461314
0.0463867
0.0458109
0.0590091
0.0620557
0.0637564
0.0655535
0.083581
0.0845133
0.057519
0.0557032
0.0541531
0.0528797
0.0518838
0.0504257
0.0787022
0.0783515
0.0785143
0.0792451
0.184088
0.181833
0.178723
0.177844
0.245977
0.044967
0.0454009
0.0457787
0.0461098
0.046407
0.046984
0.0473121
0.0458304
0.0541004
0.0550154
0.0561016
0.0587746
0.0603433
0.0620505
0.0658142
0.067825
0.0842412
0.0850205
0.0585093
0.0565742
0.0548785
0.0534398
0.0522688
0.0513659
0.0507182
0.0504329
0.0507922
0.0800737
0.080543
0.0816358
0.185213
0.18111
0.251799
0.0456769
0.0460606
0.0467125
0.0470171
0.0473402
0.0477064
0.0458185
0.0459465
0.0462138
0.046605
0.0470969
0.0476622
0.0482727
0.0489005
0.0495202
0.0501136
0.0506728
0.0511981
0.0516938
0.0521666
0.0526238
0.0530717
0.0535152
0.0539566
0.054394
0.054821
0.0552257
0.0555919
0.0559032
0.0561457
0.0563093
0.0563856
0.0563683
0.0562539
0.0560442
0.0557466
0.0553702
0.0549253
0.0544232
0.0538799
0.053318
0.0527678
0.0522636
0.0518383
0.0515205
0.0513332
0.0512927
0.0514069
0.0516788
0.0521129
0.0527164
0.0534954
0.0544553
0.0555993
0.0619099
0.0638559
0.068049
0.0852222
0.0573853
0.0555884
0.0540228
0.0527047
0.0502872
0.0504766
0.0509224
0.0515044
0.0522483
0.0531846
0.082695
0.0841828
0.188059
0.186155
0.1838
0.183318
0.257382
0.0450356
0.0455502
0.0480985
0.0457891
0.0458671
0.0460905
0.0550389
0.0637
0.0658598
0.0681043
0.0850848
0.0562472
0.0545964
0.0531674
0.0519758
0.0503363
0.0498773
0.051096
0.0517721
0.0526192
0.0536698
0.054956
0.0837314
0.0849397
0.190342
0.188357
0.185873
0.185351
0.262688
0.0388838
0.0453784
0.045901
0.0484804
0.0481524
0.0475353
0.0457456
0.0457755
0.0459551
0.0499146
0.0500179
0.0502883
0.0507341
0.0544427
0.0558768
0.0575087
0.0593238
0.0613044
0.0634289
0.0845862
0.0551278
0.0536273
0.0523381
0.0512753
0.0504494
0.0498614
0.0495004
0.0541904
0.0555993
0.0572855
0.0592747
0.0615848
0.0856278
0.0872465
0.192057
0.189978
0.187325
0.186739
0.268078
0.267673
0.0390985
0.0488425
0.049075
0.0483774
0.0477165
0.0456848
0.0456664
0.0458007
0.049229
0.0493284
0.0495974
0.0500462
0.0588363
0.0608729
0.0630572
0.0837264
0.0540529
0.0527033
0.0515532
0.0626891
0.0862356
0.0875542
0.19104
0.187506
0.272675
0.272295
0.0393324
0.0491737
0.0500327
0.0492937
0.0485614
0.0546901
0.0563955
0.058296
0.0825307
0.0678223
0.0656006
0.0634544
0.0613995
0.0594532
0.0576318
0.0559482
0.0544134
0.0530385
0.0518365
0.050821
0.0500072
0.0637911
0.0867701
0.0877778
0.193901
0.191591
0.189787
0.187705
0.187414
0.276871
0.276509
0.03959
0.049463
0.0502341
0.0494707
0.0487098
0.0540609
0.0810425
0.0655753
0.0634923
0.0615007
0.059612
0.057839
0.0561929
0.054682
0.0533125
0.0520917
0.0501413
0.0494406
0.0648805
0.0872529
0.0879423
0.191702
0.187411
0.186993
0.280615
0.280264
0.0398814
0.0497045
0.0504004
0.0496188
0.0534058
0.0551338
0.0793163
0.0634077
0.0614701
0.0596369
0.0579157
0.0563147
0.0548408
0.0534973
0.0522862
0.0512113
0.0489108
0.0659495
0.0877132
0.191465
0.189366
0.186708
0.186141
0.28351
0.0402241
0.0499034
0.0527264
0.0544452
0.0774123
0.0613415
0.0595519
0.0578767
0.0563202
0.0548865
0.0535782
0.0523943
0.0513327
0.0503941
0.048919
0.0484127
0.0669975
0.0881807
0.188699
0.18569
0.184951
0.286197
0.0406411
0.0500816
0.0448105
0.0446695
0.0446738
0.0467333
0.0473791
0.0482245
0.0505454
0.0520297
0.0753928
0.0593937
0.0496389
0.0489414
0.0483712
0.0479471
0.0680336
0.0886837
0.187864
0.185901
0.184455
0.18352
0.288277
0.0411588
0.0502794
0.0447162
0.0445187
0.0444662
0.0445455
0.0447368
0.0450157
0.0453571
0.0457381
0.0461402
0.0465504
0.0469611
0.0473687
0.0477718
0.0481706
0.0485657
0.0489563
0.0493389
0.0497051
0.049248
0.0488133
0.0483548
0.047883
0.0474083
0.0469431
0.0465028
0.0461055
0.0457708
0.0455188
0.0453694
0.0453424
0.0454557
0.0457257
0.0461679
0.0476181
0.0486437
0.0498788
0.0733176
0.0731488
0.0609279
0.0592003
0.0575781
0.048948
0.0483523
0.0478695
0.048159
0.0487592
0.0495043
0.0690759
0.0892476
0.189666
0.18696
0.184773
0.183104
0.181948
0.289723
0.0418031
0.0430507
0.0442986
0.0454968
0.0505475
0.0508548
0.0447336
0.0454076
0.0457734
0.0461525
0.0465371
0.046923
0.0473084
0.0476927
0.0491861
0.0495129
0.0499913
0.050106
0.0501284
0.0500639
0.049078
0.0486884
0.0712409
0.0710149
0.0589946
0.0573942
0.0559056
0.0545442
0.0533125
0.0522071
0.0512237
0.0503549
0.0495892
0.0489148
0.0483247
0.0471347
0.0469919
0.0470027
0.0471722
0.0475007
0.0479864
0.0486272
0.0494213
0.0503726
0.0514938
0.0528072
0.054345
0.0701417
0.0740907
0.0898929
0.0889394
0.0887175
0.18609
0.183657
0.18034
0.290539
0.0463021
0.0474005
0.0483543
0.0491342
0.0497285
0.0509346
0.0512039
0.054134
0.0539947
0.0536731
0.0531855
0.0492228
0.0483266
0.0474608
0.0466547
0.0459402
0.0453467
0.0448939
0.0488449
0.0491633
0.0496249
0.0497319
0.0497475
0.0496777
0.0486953
0.0483134
0.0692098
0.0689354
0.0467916
0.0466988
0.0467512
0.0469563
0.0473175
0.0478369
0.0485168
0.0503704
0.0515651
0.0529663
0.0546066
0.0565225
0.0712423
0.075344
0.0887866
0.182658
0.178807
0.177642
0.290757
0.0506542
0.0510348
0.0512538
0.0513492
0.0517104
0.0520557
0.0524952
0.0529938
0.053506
0.0539807
0.0543661
0.0546169
0.0547013
0.0546017
0.0543157
0.0538561
0.0532453
0.0525106
0.051681
0.0507859
0.0498542
0.0480008
0.0471417
0.0463723
0.048698
0.0490086
0.0485113
0.0481345
0.0672656
0.0669489
0.0570236
0.0555784
0.0486896
0.048144
0.0464296
0.0465202
0.0467586
0.0471512
0.0477039
0.0548952
0.0569313
0.0592894
0.0685249
0.0723792
0.0766297
0.088953
0.181887
0.179417
0.17746
0.176007
0.290427
0.0523195
0.0522794
0.0523941
0.052711
0.0531324
0.0536245
0.0541428
0.054636
0.0550509
0.0553396
0.0554664
0.0554091
0.0551606
0.0547299
0.0541363
0.0534051
0.0525647
0.051645
0.0506763
0.0496909
0.0487222
0.0478056
0.0469776
0.0449106
0.0449133
0.0450169
0.0487488
0.049052
0.0493041
0.0494844
0.0495791
0.0495849
0.0495079
0.0493571
0.0491396
0.0485288
0.0444083
0.0446888
0.0465257
0.0474945
0.0650896
0.0568167
0.0554225
0.0540945
0.0485204
0.0479838
0.0475277
0.0467968
0.046514
0.0463004
0.046178
0.0461708
0.0462964
0.0465664
0.0469899
0.0492783
0.0504152
0.0552055
0.057365
0.0598588
0.0659316
0.0695407
0.0735445
0.0892102
0.181438
0.178662
0.176398
0.174636
0.289613
0.0533677
0.0532363
0.053117
0.0532527
0.0535428
0.0477498
0.045415
0.0454439
0.0455916
0.0457993
0.0460505
0.0463329
0.0466374
0.046958
0.0472902
0.0476308
0.0479767
0.0483239
0.0486659
0.0489924
0.0492881
0.0495329
0.0497069
0.0497967
0.0497993
0.0497203
0.0495686
0.0493512
0.0487428
0.0483698
0.0479664
0.0475432
0.0471081
0.0466683
0.046231
0.0458053
0.0454026
0.0450362
0.0447217
0.0444762
0.0443188
0.0442688
0.0443445
0.044562
0.0449334
0.0454667
0.046169
0.0470472
0.0481061
0.0669192
0.0659753
0.0633862
0.0552646
0.0539804
0.0516487
0.0506453
0.0478136
0.0473597
0.0469781
0.0463713
0.0461394
0.0460727
0.0463728
0.0482508
0.0492466
0.0504504
0.0535638
0.0555311
0.0578163
0.0604473
0.0634427
0.0668152
0.0705741
0.0895406
0.178299
0.175709
0.17362
0.288383
0.0542502
0.0541428
0.0542634
0.0486655
0.047838
0.0462788
0.0460695
0.0476527
0.0487844
0.0566508
0.0585069
0.0603692
0.0672572
0.0664118
0.065478
0.0645358
0.0618595
0.0551012
0.0538841
0.052707
0.0505921
0.0496921
0.0472085
0.0468222
0.0464997
0.0459877
0.0457941
0.0456596
0.0456082
0.0473223
0.0481687
0.0492201
0.0504926
0.0537874
0.0558673
0.0582781
0.0610454
0.0641843
0.0677036
0.0899176
0.175474
0.173039
0.286806
0.0553414
0.055296
0.0553869
0.0488003
0.0474963
0.0470909
0.0445749
0.0446518
0.0448693
0.0483197
0.0556714
0.0574423
0.0592289
0.0659568
0.0651302
0.0632749
0.0605189
0.0538043
0.0526855
0.0497016
0.0488967
0.0456564
0.0454889
0.0453504
0.0472057
0.048097
0.0562103
0.0587436
0.0616429
0.0903113
0.179065
0.175773
0.284946
0.0565185
0.0565749
0.0498245
0.0484224
0.0448438
0.0448482
0.0449864
0.0462812
0.0470312
0.0479478
0.0640117
0.0631126
0.0621885
0.0593627
0.0507026
0.0498004
0.0453931
0.0452402
0.045144
0.0451312
0.0452289
0.0454587
0.0458376
0.0463818
0.0471102
0.0592047
0.0622283
0.0906968
0.180344
0.176681
0.173502
0.282864
0.0577554
0.0577776
0.0508648
0.0493747