# vtk DataFile Version 1.0
Unstructured Grid Example
ASCII

DATASET UNSTRUCTURED_GRID
POINTS 2692 float
11 245 0
53 363 0
211 393 0
106 467 0
136 465 0
330 495 0
485 397 0
372 355 0
273 225 0
512 1 0
29 289 0
35 303 0
211 337 0
227 219 0
213 415 0
238 420 0
89 362 0
37 358 0
84 444 0
99 452 0
87 502 0
47 513 0
188 507 0
191 507 0
215 459 0
102 447 0
284 400 0
290 388 0
306 432 0
297 478 0
422 403 0
369 416 0
469 394 0
335 389 0
315 376 0
344 381 0
294 348 0
249 351 0
309 335 0
320 334 0
365 334 0
457 286 0
11 269 0
10 271 0
13 279 0
42 323 0
17 281 0
31 277 0
25 269 0
82 256 0
217 211 0
222 212 0
225 1 0
261 270 0
255 289 0
249 286 0
224 319 0
157 402 0
110 326 0
222 406 0
224 355 0
236 406 0
225 419 0
221 418 0
220 413 0
87 385 0
57 405 0
54 351 0
74 325 0
54 342 0
48 343 0
51 372 0
0 388 0
0 452 0
0 467 0
20 471 0
78 462 0
77 482 0
70 475 0
8 486 0
0 475 0
0 490 0
5 493 0
36 506 0
28 513 0
61 505 0
79 507 0
85 500 0
58 495 0
94 498 0
107 505 0
132 513 0
104 513 0
196 508 0
169 513 0
156 495 0
188 494 0
138 493 0
152 483 0
132 474 0
109 480 0
107 439 0
88 438 0
150 442 0
215 441 0
287 376 0
314 378 0
323 377 0
357 381 0
275 387 0
267 382 0
264 382 0
298 398 0
284 389 0
300 415 0
332 418 0
346 408 0
347 513 0
335 404 0
355 401 0
454 403 0
365 415 0
455 432 0
360 513 0
502 409 0
512 450 0
458 403 0
471 397 0
431 393 0
482 396 0
419 391 0
417 393 0
423 388 0
405 387 0
481 389 0
494 387 0
362 363 0
453 362 0
348 362 0
459 346 0
347 354 0
304 361 0
339 363 0
332 369 0
292 369 0
285 364 0
279 365 0
277 370 0
269 354 0
273 356 0
294 356 0
299 350 0
353 309 0
313 332 0
307 337 0
270 290 0
262 264 0
262 278 0
321 110 0
335 136 0
454 299 0
399 185 0
468 341 0
367 344 0
487 300 0
512 297 0
508 292 0
504 291 0
0 13 0
0 1 0
0 22 0
0 205 0
8 261 0
0 63 0
0 252 0
4 286 0
0 270 0
4 291 0
3 294 0
7 287 0
7 290 0
8 268 0
4 264 0
16 284 0
26 286 0
15 287 0
12 291 0
44 307 0
41 309 0
33 299 0
36 286 0
22 275 0
24 277 0
19 284 0
13 264 0
15 259 0
12 1 0
16 264 0
65 258 0
143 192 0
77 1 0
125 199 0
136 251 0
180 210 0
182 214 0
163 196 0
158 1 0
188 216 0
188 219 0
197 215 0
207 210 0
192 234 0
247 228 0
188 222 0
185 228 0
132 274 0
133 256 0
237 269 0
241 278 0
230 287 0
248 294 0
228 304 0
132 278 0
122 280 0
130 282 0
116 275 0
128 271 0
101 264 0
79 253 0
109 271 0
104 305 0
107 312 0
100 322 0
111 338 0
210 346 0
201 356 0
206 342 0
111 329 0
232 346 0
215 321 0
242 347 0
247 341 0
239 348 0
247 348 0
226 349 0
213 348 0
239 382 0
243 367 0
247 374 0
248 360 0
243 398 0
246 398 0
242 387 0
239 398 0
224 392 0
231 394 0
237 388 0
239 386 0
219 365 0
177 384 0
210 386 0
181 386 0
62 381 0
72 385 0
56 385 0
53 384 0
61 369 0
63 378 0
64 370 0
67 377 0
98 362 0
90 369 0
94 361 0
98 338 0
80 330 0
63 338 0
56 349 0
67 355 0
35 332 0
50 353 0
47 317 0
48 314 0
0 329 0
6 310 0
33 338 0
33 357 0
39 362 0
0 370 0
43 366 0
47 357 0
53 375 0
37 388 0
8 378 0
0 376 0
0 432 0
17 456 0
0 457 0
45 453 0
53 453 0
45 414 0
49 412 0
90 450 0
66 415 0
95 453 0
109 435 0
91 453 0
89 460 0
84 453 0
71 453 0
80 481 0
56 484 0
92 460 0
103 468 0
87 485 0
90 485 0
81 484 0
53 484 0
48 475 0
32 481 0
38 473 0
46 462 0
30 472 0
27 473 0
15 482 0
14 485 0
29 490 0
25 490 0
33 496 0
38 499 0
40 507 0
42 503 0
39 501 0
0 501 0
0 511 0
0 507 0
7 513 0
10 513 0
44 511 0
34 512 0
20 510 0
36 509 0
56 504 0
47 504 0
58 505 0
63 512 0
84 511 0
90 511 0
107 508 0
77 506 0
77 498 0
107 502 0
52 498 0
50 504 0
50 494 0
47 495 0
55 498 0
61 496 0
127 476 0
137 482 0
149 484 0
153 494 0
153 506 0
152 491 0
151 488 0
127 508 0
136 513 0
140 513 0
120 513 0
154 511 0
158 513 0
142 507 0
150 506 0
163 508 0
175 500 0
160 512 0
173 513 0
183 513 0
187 513 0
179 507 0
182 507 0
202 495 0
184 497 0
168 500 0
161 496 0
200 491 0
197 489 0
203 482 0
205 493 0
154 470 0
204 467 0
207 459 0
168 451 0
148 450 0
139 462 0
138 467 0
138 474 0
135 474 0
126 465 0
122 468 0
110 462 0
109 443 0
113 452 0
117 444 0
119 450 0
222 432 0
142 436 0
113 442 0
110 438 0
112 428 0
153 420 0
221 401 0
229 411 0
233 405 0
235 411 0
232 418 0
241 421 0
243 418 0
244 421 0
242 412 0
247 406 0
252 368 0
250 378 0
252 380 0
264 377 0
256 370 0
289 369 0
278 368 0
311 372 0
297 368 0
317 373 0
320 378 0
315 383 0
316 379 0
312 383 0
292 378 0
286 387 0
294 384 0
301 386 0
316 388 0
314 391 0
304 388 0
285 393 0
281 390 0
270 392 0
260 396 0
275 391 0
281 387 0
254 383 0
257 384 0
255 390 0
257 392 0
249 399 0
271 396 0
277 397 0
280 396 0
304 404 0
303 412 0
252 406 0
251 404 0
255 414 0
300 423 0
271 513 0
294 513 0
304 444 0
303 490 0
304 424 0
302 418 0
309 445 0
305 421 0
309 497 0
305 513 0
316 503 0
315 449 0
320 436 0
319 427 0
320 414 0
317 410 0
315 406 0
310 408 0
315 396 0
312 399 0
315 399 0
317 404 0
353 409 0
354 404 0
366 402 0
371 411 0
373 416 0
360 410 0
321 411 0
325 429 0
327 420 0
323 432 0
320 511 0
335 513 0
369 513 0
330 420 0
327 417 0
409 412 0
380 413 0
455 445 0
434 513 0
456 496 0
469 513 0
512 475 0
455 421 0
465 406 0
462 405 0
430 403 0
412 410 0
440 402 0
408 402 0
440 398 0
501 397 0
504 395 0
480 394 0
496 391 0
506 386 0
365 389 0
369 386 0
413 391 0
427 392 0
349 392 0
353 396 0
341 396 0
323 394 0
321 384 0
320 386 0
332 389 0
344 389 0
346 378 0
354 376 0
326 384 0
321 376 0
333 365 0
324 372 0
356 365 0
357 375 0
364 376 0
361 367 0
362 382 0
364 384 0
512 379 0
499 384 0
494 379 0
457 371 0
512 353 0
358 355 0
354 359 0
362 353 0
367 336 0
450 340 0
452 346 0
447 332 0
512 334 0
484 331 0
451 322 0
354 313 0
447 322 0
446 328 0
357 333 0
347 347 0
351 335 0
345 328 0
351 327 0
339 330 0
332 338 0
335 342 0
335 346 0
331 356 0
337 354 0
341 356 0
349 353 0
352 357 0
347 360 0
338 357 0
330 359 0
311 362 0
320 363 0
323 361 0
310 357 0
299 357 0
301 349 0
293 359 0
303 364 0
275 364 0
283 357 0
266 364 0
251 358 0
269 349 0
286 349 0
286 356 0
292 350 0
257 341 0
260 330 0
255 335 0
252 342 0
269 323 0
277 328 0
279 321 0
291 319 0
304 331 0
297 319 0
301 336 0
312 343 0
328 341 0
326 349 0
325 339 0
315 314 0
273 263 0
277 289 0
302 262 0
279 262 0
268 292 0
261 284 0
271 293 0
259 300 0
254 271 0
257 296 0
251 278 0
249 289 0
254 265 0
251 265 0
258 270 0
258 263 0
270 227 0
294 260 0
268 259 0
263 224 0
267 223 0
276 162 0
279 156 0
289 91 0
317 74 0
297 62 0
315 88 0
298 258 0
327 132 0
321 72 0
329 67 0
326 49 0
345 48 0
336 65 0
422 176 0
436 183 0
433 197 0
431 261 0
429 246 0
429 199 0
330 291 0
334 295 0
343 299 0
343 309 0
446 312 0
441 305 0
443 301 0
441 293 0
450 281 0
467 288 0
451 306 0
458 312 0
512 308 0
484 299 0
511 292 0
512 288 0
512 254 0
512 185 0
512 268 0
510 260 0
502 1 0
466 1 0
512 46 0
512 131 0
0 31 0
0 213 0
0 225 0
0 112 0
0 195 0
0 39 0
0 5 0
0 9 0
0 49 0
4 1 0
8 1 0
0 166 0
0 182 0
0 91 0
0 132 0
7 251 0
4 253 0
9 253 0
10 239 0
9 256 0
5 257 0
3 261 0
2 256 0
1 262 0
0 244 0
0 235 0
0 230 0
0 241 0
0 247 0
0 259 0
0 264 0
0 267 0
0 277 0
1 272 0
2 274 0
1 287 0
2 280 0
1 290 0
0 293 0
0 296 0
0 304 0
0 307 0
0 317 0
2 312 0
0 314 0
2 309 0
0 300 0
2 283 0
7 284 0
7 294 0
4 297 0
11 294 0
9 296 0
9 292 0
11 283 0
9 277 0
10 280 0
6 277 0
5 282 0
4 275 0
6 265 0
7 270 0
8 272 0
19 289 0
22 286 0
25 289 0
25 292 0
22 289 0
17 293 0
15 291 0
15 298 0
12 297 0
13 301 0
17 302 0
18 298 0
23 298 0
24 295 0
21 294 0
41 303 0
36 300 0
40 306 0
41 312 0
51 316 0
53 319 0
61 314 0
47 311 0
34 295 0
30 296 0
28 293 0
26 298 0
32 285 0
31 292 0
35 289 0
36 292 0
35 283 0
29 284 0
31 282 0
32 273 0
26 274 0
29 275 0
28 278 0
27 281 0
22 283 0
20 279 0
15 282 0
12 277 0
12 272 0
13 275 0
14 273 0
16 275 0
20 269 0
23 264 0
19 266 0
17 271 0
17 257 0
12 255 0
18 260 0
22 1 0
35 1 0
45 1 0
63 1 0
23 267 0
67 271 0
71 272 0
64 264 0
70 255 0
104 1 0
124 204 0
128 195 0
125 210 0
77 241 0
74 251 0
72 242 0
83 252 0
75 254 0
86 257 0
92 259 0
105 268 0
116 268 0
111 268 0
98 261 0
132 261 0
131 265 0
129 268 0
132 269 0
138 246 0
140 239 0
143 233 0
144 229 0
147 224 0
147 216 0
143 216 0
138 216 0
130 212 0
130 1 0
133 215 0
136 193 0
151 193 0
158 194 0
170 201 0
147 220 0
192 215 0
185 216 0
189 212 0
177 204 0
213 210 0
194 1 0
223 201 0
244 1 0
226 210 0
225 214 0
200 213 0
197 219 0
235 231 0
240 231 0
253 224 0
255 262 0
248 264 0
247 267 0
244 266 0
241 267 0
229 228 0
229 232 0
199 228 0
230 221 0
197 225 0
185 223 0
190 228 0
198 234 0
239 275 0
236 282 0
238 289 0
240 292 0
242 288 0
240 285 0
241 270 0
246 274 0
245 282 0
247 284 0
251 287 0
252 292 0
252 295 0
247 291 0
244 291 0
247 301 0
246 297 0
249 299 0
250 302 0
248 305 0
247 314 0
246 311 0
246 307 0
244 313 0
244 317 0
242 309 0
244 303 0
242 295 0
241 304 0
237 309 0
240 319 0
224 312 0
224 309 0
219 315 0
218 319 0
227 307 0
229 301 0
229 292 0
230 297 0
233 290 0
233 285 0
233 278 0
234 270 0
230 279 0
230 275 0
231 282 0
125 282 0
93 292 0
96 296 0
119 277 0
113 273 0
83 278 0
77 274 0
87 282 0
90 289 0
99 298 0
96 301 0
101 301 0
106 308 0
108 315 0
104 314 0
102 317 0
99 319 0
102 331 0
103 328 0
108 320 0
109 332 0
106 334 0
103 334 0
95 335 0
102 339 0
106 339 0
106 352 0
101 358 0
107 356 0
108 349 0
110 346 0
112 343 0
205 348 0
207 345 0
208 349 0
203 352 0
220 349 0
218 357 0
216 348 0
208 338 0
218 332 0
216 335 0
214 333 0
211 334 0
216 326 0
215 330 0
218 324 0
221 332 0
223 330 0
227 330 0
224 337 0
222 340 0
230 335 0
232 342 0
229 327 0
229 321 0
232 321 0
235 324 0
238 321 0
248 332 0
253 337 0
251 339 0
234 344 0
234 339 0
249 345 0
245 350 0
251 348 0
252 345 0
255 358 0
252 351 0
246 358 0
244 356 0
233 351 0
241 357 0
236 347 0
238 344 0
230 349 0
223 349 0
228 351 0
228 355 0
233 359 0
236 359 0
240 372 0
246 380 0
244 373 0
247 367 0
251 361 0
253 360 0
252 364 0
254 363 0
256 362 0
255 374 0
255 377 0
255 367 0
253 370 0
249 384 0
247 387 0
252 387 0
255 386 0
251 392 0
254 393 0
249 389 0
247 393 0
244 394 0
242 393 0
242 383 0
245 383 0
239 392 0
235 385 0
236 393 0
240 394 0
229 392 0
226 394 0
219 392 0
217 394 0
217 386 0
220 387 0
224 386 0
228 386 0
232 377 0
232 385 0
228 369 0
230 362 0
223 360 0
220 359 0
227 361 0
216 366 0
[...]
CELL_DATA 5106
COLOR_SCALARS ColorSpace 1
0.383007
0.328105
0.296732
0.335948
0.299346
0.288889
0.216993
0.31634
0.296732
0.346405
0.32549
0.239216
0.305882
0.308497
0.291503
0.572549
0.379085
0.311111
0.30719
0.317647
0.363399
0.355556
0.260131
0.318954
0.320261
0.330719
0.305882
0.279739
0.30719
0.311111
0.313725
0.315033
0.315033
0.333333
0.303268
0.36732
0.288889
0.334641
0.258824
0.286275
0.351634
0.398693
0.318954
0.386928
0.32549
0.30719
0.313725
0.312418
0.31634
0.329412
0.296732
0.330719
0.300654
0.363399
0.315033
0.315033
0.313725
0.318954
0.312418
0.215686
0.385621
0.321569
0.31634
0.312418
0.303268
0.352941
0.320261
0.31634
0.309804
0.343791
0.343791
0.315033
0.313725
0.305882
0.342484
0.334641
0.315033
0.311111
0.278431
0.32549
0.313725
0.315033
0.335948
0.607843
0.34902
0.308497
0.31634
0.326797
0.335948
0.332026
0.324183
0.339869
0.335948
0.339869
0.330719
0.329412
0.338562
0.309804
0.28366
0.311111
0.300654
0.330719
0.31634
0.315033
0.311111
0.318954
0.305882
0.311111
0.301961
0.328105
0.304575
0.322876
0.345098
0.324183
0.300654
0.301961
0.309804
0.312418
0.31634
0.303268
0.317647
0.30719
0.360784
0.299346
0.351634
0.315033
0.322876
0.332026
0.311111
0.305882
0.309804
0.320261
0.30719
0.326797
0.298039
0.303268
0.291503
0.334641
0.2
0.318954
0.27451
0.262745
0.324183
0.317647
0.288889
0.254902
0.346405
0.362092
0.219608
0.269281
0.333333
0.376471
0.355556
0.315033
0.294118
0.4
0.32549
0.343791
0.338562
0.332026
0.31634
0.311111
0.257516
0.332026
0.294118
0.32549
0.362092
0.315033
0.317647
0.379085
0.342484
0.322876
0.350327
0.313725
0.321569
0.341176
0.322876
0.296732
0.334641
0.32549
0.300654
0.308497
0.311111
0.359477
0.284967
0.317647
0.337255
0.300654
0.315033
0.30719
0.339869
0.313725
0.295425
0.333333
0.329412
0.304575
0.313725
0.303268
0.321569
0.303268
0.313725
0.318954
0.309804
0.347712
0.312418
0.308497
0.359477
0.30719
0.317647
0.309804
0.30719
0.32549
0.324183
0.29281
0.30719
0.354248
0.317647
0.235294
0.311111
0.321569
0.342484
0.324183
0.321569
0.318954
0.295425
0.321569
0.337255
0.2
0.318954
0.185621
0.34902
0.320261
0.312418
0.371242
0.332026
0.329412
0.381699
0.275817
0.368627
0.342484
0.322876
0.368627
0.312418
0.294118
0.262745
0.337255
0.224837
0.269281
0.345098
0.350327
0.305882
0.304575
0.309804
0.356863
0.337255
0.23268
0.317647
0.296732
0.305882
0.350327
0.347712
0.315033
0.301961
0.312418
0.303268
0.324183
0.320261
0.328105
0.329412
0.330719
0.324183
0.350327
0.312418
0.311111
0.304575
0.318954
0.301961
0.332026
0.328105
0.337255
0.328105
0.317647
0.322876
0.355556
0.341176
0.373856
0.320261
0.355556
0.235294
0.338562
0.324183
0.301961
0.364706
0.324183
0.288889
0.303268
0.330719
0.303268
0.278431
0.343791
0.282353
0.252288
0.381699
0.308497
0.295425
0.318954
0.321569
0.335948
0.34902
0.34902
0.355556
0.295425
0.369935
0.465359
0.373856
0.613072
0.312418
0.341176
0.381699
0.321569
0.313725
0.411765
0.301961
0.324183
0.301961
0.338562
0.309804
0.315033
0.31634
0.304575
0.355556
0.32549
0.326797
0.339869
0.35817
0.315033
0.31634
0.312418
0.311111
0.305882
0.321569
0.312418
0.315033
0.326797
0.305882
0.30719
0.300654
0.335948
0.311111
0.309804
0.369935
0.345098
0.322876
0.312418
0.313725
0.30719
0.315033
0.299346
0.317647
0.34902
0.30719
0.318954
0.328105
0.311111
0.351634
0.320261
0.759477
0.375163
0.315033
0.333333
0.330719
0.275817
0.309804
0.31634
0.321569
0.305882
0.278431
0.299346
0.309804
0.321569
0.296732
0.267974
0.312418
0.318954
0.311111
0.273203
0.290196
0.322876
0.312418
0.321569
0.303268
0.330719
0.309804
0.308497
0.279739
0.305882
0.275817
0.322876
0.267974
0.301961
0.322876
0.298039
0.279739
0.201307
0.290196
0.329412
0.322876
0.295425
0.32549
0.273203
0.317647
0.299346
0.29281
0.305882
0.329412
0.338562
0.32549
0.253595
0.313725
0.309804
0.29281
0.308497
0.309804
0.296732
0.337255
0.326797
0.337255
0.324183
0.318954
0.305882
0.320261
0.360784
0.315033
0.304575
0.305882
0.296732
0.312418
0.329412
0.315033
0.354248
0.346405
0.273203
0.290196
0.321569
0.329412
0.309804
0.379085
0.383007
0.328105
0.368627
0.31634
0.337255
0.368627
0.328105
0.355556
0.31634
0.299346
0.309804
0.346405
0.312418
0.315033
0.342484
0.368627
0.326797
0.337255
0.346405
0.309804
0.308497
0.304575
0.304575
0.30719
0.356863
0.318954
0.326797
0.324183
0.30719
0.312418
0.324183
0.324183
0.305882
0.30719
0.315033
0.360784
0.318954
0.313725
0.311111
0.329412
0.309804
0.313725
0.301961
0.291503
0.311111
0.309804
0.301961
0.294118
0.313725
0.312418
0.304575
0.324183
0.304575
0.354248
0.294118
0.369935
0.295425
0.414379
0.317647
0.29281
0.313725
0.332026
0.415686
0.337255
0.337255
0.337255
0.309804
0.301961
0.354248
0.334641
0.309804
0.315033
0.333333
0.298039
0.317647
0.296732
0.30719
0.304575
0.301961
0.28366
0.321569
0.29281
0.308497
0.31634
0.311111
0.258824
0.317647
0.28366
0.360784
0.30719
0.300654
0.315033
0.312418
0.30719
0.299346
0.269281
0.299346
0.224837
0.213072
0.210458
0.305882
0.288889
0.317647
0.256209
0.329412
0.337255
0.294118
0.32549
0.372549
0.218301
0.303268
0.237908
0.305882
0.333333
0.311111
0.296732
0.305882
0.389542
0.313725
0.312418
0.334641
0.356863
0.308497
0.351634
0.301961
0.334641
0.308497
0.278431
0.305882
0.364706
0.329412
0.271895
0.341176
0.339869
0.379085
0.356863
0.294118
0.304575
0.227451
0.244444
0.308497
0.275817
0.305882
0.304575
0.253595
0.291503
0.312418
0.375163
0.265359
0.355556
0.333333
0.261438
0.298039
0.39085
0.29281
0.284967
0.299346
0.287582
0.342484
0.338562
0.295425
0.326797
0.31634
0.362092
0.239216
0.286275
0.341176
0.345098
0.290196
0.296732
0.260131
0.324183
0.298039
0.34902
0.406536
0.369935
0.437908
0.356863
0.345098
0.320261
0.284967
0.300654
0.355556
0.34902
0.264052
0.326797
0.343791
0.386928
0.329412
0.339869
0.355556
0.335948
0.243137
0.416993
0.31634
0.291503
0.362092
0.299346
0.410458
0.32549
0.288889
0.311111
0.334641
0.304575
0.286275
0.322876
0.335948
0.356863
0.356863
0.299346
0.339869
0.305882
0.339869
0.315033
0.294118
0.315033
0.309804
0.341176
0.301961
0.334641
0.317647
0.288889
0.317647
0.279739
0.29281
0.284967
0.356863
0.320261
0.300654
0.308497
0.315033
0.320261
0.296732
0.312418
0.317647
0.402614
0.305882
0.364706
0.393464
0.31634
0.343791
0.377778
0.318954
0.29281
0.309804
0.347712
0.315033
0.351634
0.279739
0.284967
0.355556
0.354248
0.373856
0.332026
0.381699
0.369935
0.372549
0.356863
0.303268
0.312418
0.311111
0.312418
0.363399
0.32549
0.312418
0.294118
0.196078
0.300654
0.318954
0.301961
0.312418
0.301961
0.312418
0.311111
0.312418
0.315033
0.332026
0.328105
0.31634
0.328105
0.322876
0.34902
0.286275
0.304575
0.31634
0.30719
0.301961
0.311111
0.312418
0.312418
0.296732
0.313725
0.300654
0.328105
0.309804
0.355556
0.359477
0.305882
0.362092
0.299346
0.339869
0.309804
0.305882
0.338562
0.295425
0.288889
0.317647
0.308497
0.309804
0.312418
0.312418
0.301961
0.303268
0.313725
0.32549
0.322876
0.300654
0.326797
0.308497
0.311111
0.324183
0.338562
0.311111
0.30719
0.31634
0.318954
0.32549
0.305882
0.30719
0.298039
0.30719
0.347712
0.299346
0.328105
0.328105
0.335948
0.32549
0.304575
0.346405
0.36732
0.313725
0.375163
0.309804
0.318954
0.333333
0.359477
0.315033
0.322876
0.346405
0.369935
0.324183
0.309804
0.335948
0.328105
0.321569
0.318954
0.317647
0.279739
0.321569
0.299346
0.318954
0.313725
0.29281
0.296732
0.335948
0.318954
0.32549
0.345098
0.324183
0.318954
0.317647
0.324183
0.363399
0.309804
0.363399
0.288889
0.309804
0.321569
0.369935
0.295425
0.354248
0.301961
0.312418
0.301961
0.356863
0.321569
0.313725
0.290196
0.29281
0.341176
0.330719
0.346405
0.328105
0.346405
0.31634
0.312418
0.309804
0.321569
0.354248
0.311111
0.320261
0.31634
0.288889
0.35817
0.286275
0.304575
0.311111
0.317647
0.301961
0.350327
0.337255
0.351634
0.326797
0.32549
0.330719
0.330719
0.362092
0.290196
0.332026
0.2
0.24183
0.313725
0.352941
0.175163
0.32549
0.309804
0.296732
0.311111
0.309804
0.330719
0.335948
0.304575
0.305882
0.215686
0.338562
0.183007
0.203922
0.227451
0.328105
0.296732
0.296732
0.329412
0.286275
0.271895
0.313725
0.265359
0.300654
0.329412
0.266667
0.281046
0.313725
0.334641
0.338562
0.260131
0.299346
0.317647
0.313725
0.308497
0.318954
0.294118
0.305882
0.288889
0.334641
0.334641
0.286275
0.275817
0.301961
0.305882
0.301961
0.257516
0.338562
0.301961
0.311111
0.335948
0.290196
0.286275
0.324183
0.312418
0.257516
0.288889
0.192157
0.270588
0.275817
0.243137
0.278431
0.326797
0.303268
0.279739
0.304575
0.295425
0.346405
0.311111
0.322876
0.401307
0.235294
0.467974
0.462745
0.329412
0.284967
0.36732
0.346405
0.313725
0.295425
0.288889
0.279739
0.287582
0.324183
0.355556
0.290196
0.305882
0.333333
0.343791
0.341176
0.324183
0.356863
0.342484
0.341176
0.257516
0.339869
0.303268
0.317647
0.315033
0.273203
0.28366
0.343791
0.315033
0.308497
0.320261
0.317647
0.300654
0.300654
0.309804
0.330719
0.318954
0.295425
0.303268
0.312418
0.290196
0.330719
0.312418
0.318954
0.286275
0.328105
0.309804
0.332026
0.288889
0.339869
0.345098
0.35817
0.373856
0.295425
0.321569
0.315033
0.317647
0.320261
0.318954
0.32549
0.321569
0.315033
0.308497
0.298039
0.351634
0.304575
0.377778
0.303268
0.32549
0.28366
0.311111
0.343791
0.286275
0.31634
0.315033
0.318954
0.240523
0.303268
0.31634
0.315033
0.329412
0.341176
0.318954
0.320261
0.313725
0.330719
0.372549
0.317647
0.300654
0.271895
0.318954
0.30719
0.305882
0.334641
0.339869
0.338562
0.312418
0.352941
0.342484
0.342484
0.301961
0.222222
0.329412
0.300654
0.317647
0.311111
0.326797
0.36732
0.333333
0.332026
0.321569
0.335948
0.321569
0.34902
0.31634
0.32549
0.332026
0.282353
0.313725
0.290196
0.311111
0.320261
0.29281
0.318954
0.317647
0.326797
0.328105
0.291503
0.308497
0.352941
0.318954
0.341176
0.311111
0.339869
0.334641
0.347712
0.281046
0.301961
0.286275
0.305882
0.384314
0.31634
0.369935
0.332026
0.318954
0.308497
0.346405
0.31634
0.324183
0.34902
0.332026
0.304575
0.320261
0.339869
0.342484
0.375163
0.30719
0.312418
0.350327
0.312418
0.350327
0.318954
0.32549
0.308497
0.341176
0.326797
0.329412
0.31634
0.339869
0.330719
0.352941
0.350327
0.320261
0.328105
0.345098
0.341176
0.305882
0.315033
0.315033
0.347712
0.318954
0.326797
0.32549
0.326797
0.324183
0.339869
0.279739
0.315033
0.311111
0.334641
0.343791
0.324183
0.305882
0.328105
0.328105
0.360784
0.295425
0.321569
0.351634
0.338562
0.321569
0.335948
0.392157
0.328105
0.30719
0.337255
0.338562
0.300654
0.315033
0.315033
0.332026
0.346405
0.288889
0.31634
0.291503
0.369935
0.36732
0.328105
0.347712
0.326797
0.309804
0.328105
0.295425
0.315033
0.372549
0.315033
0.347712
0.337255
0.304575
0.312418
0.324183
0.317647
0.332026
0.330719
0.311111
0.287582
0.30719
0.339869
0.326797
0.321569
0.332026
0.322876
0.296732
0.290196
0.311111
0.304575
0.312418
0.345098
0.298039
0.71634
0.32549
0.298039
0.335948
0.347712
0.303268
0.299346
0.275817
0.320261
0.359477
0.279739
0.286275
0.286275
0.464052
0.741176
0.312418
0.720261
0.291503
0.539869
0.315033
0.286275
0.339869
0.329412
0.343791
0.312418
0.359477
0.318954
0.265359
0.309804
0.328105
0.318954
0.278431
0.312418
0.337255
0.32549
0.305882
0.34902
0.341176
0.303268
0.328105
0.337255
0.335948
0.271895
0.309804
0.326797
0.326797
0.303268
0.299346
0.287582
0.366013
0.282353
0.303268
0.379085
0.341176
0.308497
0.312418
0.298039
0.303268
0.301961
0.339869
0.368627
0.360784
0.375163
0.364706
0.359477
0.312418
0.403922
0.375163
0.337255
0.607843
0.75817
0.248366
0.771242
0.346405
0.341176
0.354248
0.763399
0.624837
0.619608
0.762092
0.771242
0.766013
0.771242
0.40915
0.368627
0.615686
0.766013
0.4
0.392157
0.328105
0.369935
0.347712
0.318954
0.304575
0.341176
0.290196
0.372549
0.342484
0.345098
0.385621
0.338562
0.321569
0.338562
0.410458
0.363399
0.31634
0.366013
0.330719
0.346405
0.339869
0.34902
0.335948
0.333333
0.326797
0.332026
0.328105
0.324183
0.31634
0.32549
0.311111
0.322876
0.305882
0.317647
0.308497
0.318954
0.300654
0.311111
0.30719
0.290196
0.30719
0.287582
0.303268
0.298039
0.290196
0.275817
0.303268
0.281046
0.334641
0.313725
0.317647
0.313725
0.311111
0.35817
0.290196
0.350327
0.279739
0.301961
0.343791
0.32549
0.303268
0.32549
0.301961
0.312418
0.320261
0.308497
0.315033
0.317647
0.309804
0.311111
0.308497
0.315033
0.315033
0.317647
0.324183
0.337255
0.330719
0.345098
0.315033
0.338562
0.339869
0.312418
0.296732
0.309804
0.313725
0.303268
0.308497
0.304575
0.304575
0.313725
0.312418
0.308497
0.303268
0.31634
0.311111
0.312418
0.30719
0.304575
0.303268
0.324183
0.315033
0.312418
0.311111
0.31634
0.311111
0.295425
0.308497
0.300654
0.305882
0.300654
0.30719
0.305882
0.339869
0.304575
0.34902
0.308497
0.301961
0.311111
0.30719
0.312418
0.299346
0.317647
0.345098
0.301961
0.34902
0.305882
0.305882
0.299346
0.347712
0.298039
0.308497
0.304575
0.303268
0.296732
0.299346
0.324183
0.330719
0.321569
0.304575
0.369935
0.32549
0.345098
0.373856
0.321569
0.330719
0.342484
0.330719
0.311111
0.294118
0.334641
0.32549
0.32549
0.321569
0.330719
0.330719
0.309804
0.329412
0.305882
0.298039
0.301961
0.312418
0.303268
0.295425
0.321569
0.315033
0.318954
0.32549
0.322876
0.338562
0.312418
0.324183
0.342484
0.350327
0.31634
0.384314
0.334641
0.305882
0.321569
0.313725
0.342484
0.300654
0.355556
0.377778
0.329412
0.313725
0.345098
0.335948
0.31634
0.318954
0.616993
0.607843
0.611765
0.76732
0.303268
0.330719
0.324183
0.332026
0.34902
0.373856
0.313725
0.35817
0.392157
0.286275
0.50719
0.352941
0.32549
0.419608
0.335948
0.350327
0.324183
0.342484
0.372549
0.282353
0.321569
0.328105
0.305882
0.315033
0.295425
0.277124
0.281046
0.299346
0.27451
0.265359
0.301961
0.305882
0.313725
0.342484
0.31634
0.261438
0.304575
0.312418
0.312418
0.334641
0.332026
0.329412
0.322876
0.328105
0.318954
0.322876
0.328105
0.332026
0.315033
0.313725
0.360784
0.295425
0.376471
0.343791
0.312418
0.346405
0.304575
0.270588
0.286275
0.351634
0.32549
0.34902
0.362092
0.356863
0.380392
0.686275
0.469281
0.360784
0.343791
0.700654
0.287582
0.48366
0.288889
0.704575
0.308497
0.324183
0.303268
0.339869
0.318954
0.317647
0.329412
0.304575
0.301961
0.267974
0.326797
0.275817
0.286275
0.27451
0.332026
0.713725
0.520261
0.281046
0.299346
0.720261
0.291503
0.300654
0.264052
0.290196
0.298039
0.273203
0.334641
0.305882
0.278431
0.304575
0.308497
0.298039
0.32549
0.313725
0.317647
0.300654
0.308497
0.324183
0.30719
0.369935
0.335948
0.341176
0.329412
0.339869
0.294118
0.284967
0.321569
0.304575
0.287582
0.30719
0.308497
0.265359
0.342484
0.346405
0.294118
0.299346
0.334641
0.298039
0.29281
0.300654
0.371242
0.338562
0.350327
0.329412
0.333333
0.31634
0.328105
0.333333
0.321569
0.342484
0.362092
0.368627
0.347712
0.333333
0.338562
0.333333
0.334641
0.350327
0.305882
0.321569
0.346405
0.291503
0.36732
0.315033
0.309804
0.342484
0.313725
0.352941
0.32549
0.324183
0.296732
0.318954
0.317647
0.308497
0.333333
0.333333
0.330719
0.339869
0.330719
0.30719
0.354248
0.342484
0.346405
0.311111
0.341176
0.347712
0.352941
0.329412
0.312418
0.339869
0.304575
0.320261
0.330719
0.339869
0.32549
0.31634
0.346405
0.337255
0.342484
0.355556
0.313725
0.339869
0.329412
0.303268
0.304575
0.279739
0.32549
0.282353
0.31634
0.284967
0.317647
0.342484
0.342484
0.332026
0.294118
0.278431
0.318954
0.32549
0.345098
0.313725
0.332026
0.339869
0.339869
0.298039
0.355556
0.288889
0.326797
0.271895
0.311111
0.282353
0.305882
0.311111
0.247059
0.252288
0.32549
0.324183
0.337255
0.322876
0.295425
0.277124
0.295425
0.311111
0.334641
0.309804
0.320261
0.294118
0.257516
0.324183
0.317647
0.345098
0.335948
0.345098
0.351634
0.335948
0.354248
0.35817
0.291503
0.31634
0.330719
0.320261
0.329412
0.326797
0.322876
0.326797
0.338562
0.332026
0.312418
0.329412
0.317647
0.320261
0.334641
0.338562
0.301961
0.317647
0.300654
0.305882
0.329412
0.373856
0.332026
0.351634
0.373856
0.376471
0.322876
0.372549
0.30719
0.36732
0.32549
0.311111
0.332026
0.294118
0.368627
0.309804
0.315033
0.296732
0.318954
0.30719
0.313725
0.326797
0.291503
0.291503
0.326797
0.341176
0.34902
0.345098
0.334641
0.36732
0.304575
0.403922
0.295425
0.308497
0.300654
0.333333
0.281046
0.334641
0.337255
0.379085
0.308497
0.333333
0.291503
0.29281
0.31634
0.309804
0.299346
0.300654
0.29281
0.329412
0.304575
0.275817
0.30719
0.333333
0.290196
0.330719
0.31634
0.315033
0.305882
0.334641
0.329412
0.330719
0.318954
0.345098
0.313725
0.322876
0.337255
0.318954
0.342484
0.29281
0.32549
0.288889
0.318954
0.305882
0.328105
0.29281
0.294118
0.329412
0.303268
0.322876
0.350327
0.34902
0.326797
0.320261
0.304575
0.309804
0.346405
0.373856
0.352941
0.334641
0.320261
0.305882
0.31634
0.350327
0.304575
0.311111
0.352941
0.363399
0.343791
0.34902
0.373856
0.324183
0.347712
0.321569
0.376471
0.376471
0.350327
0.328105
0.341176
0.343791
0.315033
0.337255
0.329412
0.339869
0.31634
0.335948
0.326797
0.335948
0.333333
0.335948
0.315033
0.312418
0.311111
0.309804
0.315033
0.333333
0.332026
0.318954
0.300654
0.308497
0.312418
0.309804
0.303268
0.308497
0.311111
0.32549
0.294118
0.338562
0.322876
0.342484
0.376471
0.282353
0.308497
0.380392
0.366013
0.375163
0.309804
0.312418
0.31634
0.315033
0.318954
0.321569
0.318954
0.309804
0.326797
0.318954
0.299346
0.32549
0.318954
0.345098
0.321569
0.317647
0.312418
0.303268
0.309804
0.308497
0.317647
0.312418
0.315033
0.317647
0.309804
0.32549
0.29281
0.312418
0.303268
0.313725
0.299346
0.309804
0.326797
0.321569
0.30719
0.304575
0.330719
0.303268
0.31634
0.326797
0.315033
0.301961
0.31634
0.318954
0.294118
0.299346
0.304575
0.301961
0.303268
0.313725
0.309804
0.328105
0.308497
0.309804
0.330719
0.321569
0.377778
0.334641
0.362092
0.377778
0.356863
0.321569
0.322876
0.315033
0.322876
0.322876
0.311111
0.311111
0.304575
0.32549
0.309804
0.315033
0.287582
0.305882
0.304575
0.309804
0.32549
0.337255
0.311111
0.335948
0.32549
0.30719
0.313725
0.330719
0.320261
0.32549
0.31634
0.299346
0.324183
0.32549
0.31634
0.300654
0.318954
0.321569
0.305882
0.300654
0.295425
0.301961
0.335948
0.345098
0.312418
0.304575
0.299346
0.360784
0.298039
0.332026
0.290196
0.29281
0.295425
0.324183
0.303268
0.308497
0.304575
0.352941
0.321569
0.309804
0.30719
0.313725
0.291503
0.295425
0.296732
0.296732
0.362092
0.334641
0.290196
0.298039
0.290196
0.368627
0.299346
0.345098
0.315033
0.342484
0.317647
0.300654
0.324183
0.313725
0.303268
0.28366
0.296732
0.312418
0.39085
0.389542
0.332026
0.305882
0.322876
0.345098
0.305882
0.298039
0.309804
0.301961
0.305882
0.315033
0.30719
0.313725
0.30719
0.299346
0.312418
0.318954
0.313725
0.30719
0.318954
0.30719
0.304575
0.312418
0.309804
0.354248
0.350327
0.309804
0.312418
0.309804
0.32549
0.313725
0.334641
0.31634
0.385621
0.330719
0.345098
0.386928
0.335948
0.328105
0.318954
0.332026
0.308497
0.321569
0.324183
0.312418
0.315033
0.309804
0.30719
0.308497
0.311111
0.345098
0.368627
0.303268
0.351634
0.351634
0.30719
0.313725
0.304575
0.350327
0.31634
0.312418
0.299346
0.305882
0.303268
0.350327
0.312418
0.30719
0.300654
0.299346
0.311111
0.32549
0.309804
0.360784
0.309804
0.311111
0.341176
0.328105
0.313725
0.309804
0.298039
0.312418
0.303268
0.309804
0.362092
0.299346
0.300654
0.312418
0.308497
0.32549
0.301961
0.317647
0.304575
0.309804
0.298039
0.305882
0.308497
0.312418
0.299346
0.308497
0.299346
0.291503
0.298039
0.309804
0.303268
0.30719
0.317647
0.298039
0.332026
0.335948
0.320261
0.320261
0.301961
0.29281
0.339869
0.300654
0.32549
0.311111
0.30719
0.305882
0.354248
0.351634
0.288889
0.28366
0.247059
0.290196
0.343791
0.342484
0.326797
0.290196
0.308497
0.295425
0.311111
0.305882
0.299346
0.315033
0.300654
0.265359
0.227451
0.214379
0.194771
0.192157
0.2
0.273203
0.32549
0.328105
0.346405
0.317647
0.248366
0.295425
0.322876
0.309804
0.298039
0.352941
0.309804
0.303268
0.300654
0.299346
0.29281
0.294118
0.301961
0.301961
0.317647
0.305882
0.313725
0.304575
0.304575
0.304575
0.275817
0.317647
0.375163
0.332026
0.32549
0.300654
0.329412
0.303268
0.298039
0.29281
0.29281
0.296732
0.291503
0.308497
0.308497
0.286275
0.291503
0.288889
0.34902
0.313725
0.335948
0.333333
0.213072
0.201307
0.207843
0.220915
0.20915
0.205229
0.278431
0.25098
0.183007
0.312418
0.206536
0.185621
0.384314
0.329412
0.223529
0.240523
0.16732
0.309804
0.288889
0.198693
0.343791
0.275817
0.249673
0.333333
0.335948
0.29281