# vtk DataFile Version 1.0
Unstructured Grid Example
ASCII

DATASET UNSTRUCTURED_GRID
POINTS 2436 float
28 513 0
32 513 0
38 513 0
60 513 0
67 513 0
109 513 0
136 513 0
155 513 0
165 513 0
198 513 0
457 513 0
34 512 0
42 512 0
63 512 0
73 512 0
80 512 0
87 512 0
128 512 0
160 512 0
29 511 0
39 511 0
44 511 0
70 511 0
84 511 0
90 511 0
106 511 0
154 511 0
164 511 0
320 511 0
17 510 0
20 510 0
41 510 0
78 510 0
125 510 0
156 510 0
161 510 0
30 509 0
36 509 0
62 509 0
66 509 0
69 509 0
317 509 0
23 508 0
34 508 0
38 508 0
48 508 0
73 508 0
93 508 0
107 508 0
127 508 0
131 508 0
134 508 0
157 508 0
163 508 0
196 508 0
199 508 0
21 507 0
40 507 0
54 507 0
65 507 0
66 507 0
79 507 0
90 507 0
137 507 0
142 507 0
145 507 0
155 507 0
165 507 0
168 507 0
174 507 0
179 507 0
182 507 0
185 507 0
188 507 0
191 507 0
18 506 0
36 506 0
43 506 0
51 506 0
63 506 0
67 506 0
72 506 0
77 506 0
84 506 0
87 506 0
95 506 0
150 506 0
153 506 0
171 506 0
314 506 0
457 506 0
22 505 0
31 505 0
45 505 0
58 505 0
61 505 0
107 505 0
143 505 0
16 504 0
33 504 0
47 504 0
50 504 0
53 504 0
56 504 0
71 504 0
139 504 0
146 504 0
178 504 0
12 503 0
19 503 0
37 503 0
42 503 0
67 503 0
77 503 0
95 503 0
312 503 0
316 503 0
34 502 0
45 502 0
59 502 0
87 502 0
107 502 0
143 502 0
15 501 0
22 501 0
39 501 0
47 501 0
62 501 0
65 501 0
172 501 0
179 501 0
18 500 0
44 500 0
50 500 0
57 500 0
85 500 0
168 500 0
175 500 0
182 500 0
24 499 0
38 499 0
60 499 0
143 499 0
313 499 0
16 498 0
21 498 0
48 498 0
52 498 0
55 498 0
66 498 0
77 498 0
80 498 0
83 498 0
87 498 0
90 498 0
94 498 0
107 498 0
135 498 0
140 498 0
157 498 0
166 498 0
4 497 0
40 497 0
99 497 0
172 497 0
181 497 0
184 497 0
309 497 0
23 496 0
30 496 0
33 496 0
61 496 0
74 496 0
137 496 0
161 496 0
456 496 0
7 495 0
43 495 0
47 495 0
58 495 0
102 495 0
107 495 0
140 495 0
156 495 0
165 495 0
168 495 0
177 495 0
202 495 0
330 495 0
50 494 0
54 494 0
76 494 0
99 494 0
153 494 0
180 494 0
183 494 0
188 494 0
191 494 0
5 493 0
29 493 0
32 493 0
138 493 0
160 493 0
205 493 0
108 492 0
157 492 0
171 492 0
195 492 0
308 492 0
152 491 0
162 491 0
200 491 0
9 490 0
16 490 0
19 490 0
22 490 0
25 490 0
29 490 0
32 490 0
138 490 0
159 490 0
191 490 0
303 490 0
36 489 0
154 489 0
197 489 0
14 488 0
87 488 0
151 488 0
148 487 0
456 487 0
8 486 0
109 486 0
138 486 0
14 485 0
37 485 0
87 485 0
90 485 0
141 485 0
200 485 0
10 484 0
42 484 0
46 484 0
49 484 0
53 484 0
56 484 0
59 484 0
63 484 0
66 484 0
69 484 0
73 484 0
81 484 0
84 484 0
135 484 0
149 484 0
39 483 0
152 483 0
8 482 0
15 482 0
77 482 0
88 482 0
137 482 0
141 482 0
155 482 0
203 482 0
301 482 0
32 481 0
37 481 0
80 481 0
0 480 0
86 480 0
109 480 0
127 480 0
135 480 0
15 479 0
130 479 0
138 479 0
155 479 0
29 478 0
297 478 0
456 478 0
86 477 0
132 477 0
135 477 0
80 476 0
127 476 0
155 476 0
202 476 0
0 475 0
15 475 0
40 475 0
43 475 0
48 475 0
51 475 0
54 475 0
70 475 0
73 475 0
77 475 0
83 475 0
109 475 0
58 474 0
65 474 0
125 474 0
129 474 0
132 474 0
135 474 0
138 474 0
141 474 0
144 474 0
148 474 0
3 473 0
27 473 0
38 473 0
61 473 0
156 473 0
8 472 0
30 472 0
34 472 0
109 472 0
204 472 0
17 471 0
20 471 0
24 471 0
56 471 0
59 471 0
65 471 0
83 471 0
125 471 0
137 471 0
141 471 0
146 471 0
292 471 0
13 470 0
43 470 0
46 470 0
49 470 0
53 470 0
62 470 0
68 470 0
71 470 0
74 470 0
78 470 0
105 470 0
132 470 0
151 470 0
154 470 0
37 469 0
86 469 0
91 469 0
135 469 0
143 469 0
148 469 0
40 468 0
103 468 0
110 468 0
122 468 0
126 468 0
81 467 0
106 467 0
138 467 0
204 467 0
16 466 0
37 466 0
86 466 0
129 466 0
142 466 0
151 466 0
288 466 0
110 465 0
126 465 0
133 465 0
136 465 0
455 465 0
206 464 0
215 464 0
37 463 0
40 463 0
119 463 0
131 463 0
143 463 0
149 463 0
283 463 0
43 462 0
46 462 0
78 462 0
81 462 0
86 462 0
110 462 0
124 462 0
128 462 0
139 462 0
51 461 0
55 461 0
59 461 0
62 461 0
67 461 0
70 461 0
75 461 0
121 461 0
17 460 0
37 460 0
89 460 0
92 460 0
21 459 0
140 459 0
146 459 0
207 459 0
215 459 0
13 458 0
137 458 0
37 457 0
111 457 0
144 457 0
150 457 0
17 456 0
20 456 0
27 456 0
31 456 0
34 456 0
455 456 0
11 455 0
23 455 0
120 455 0
128 455 0
138 455 0
148 455 0
207 455 0
15 453 0
26 453 0
30 453 0
34 453 0
37 453 0
40 453 0
45 453 0
49 453 0
53 453 0
58 453 0
62 453 0
67 453 0
71 453 0
75 453 0
78 453 0
81 453 0
84 453 0
88 453 0
91 453 0
95 453 0
102 453 0
116 453 0
145 453 0
0 452 0
99 452 0
110 452 0
113 452 0
121 452 0
137 452 0
12 451 0
104 451 0
151 451 0
168 451 0
209 451 0
90 450 0
108 450 0
119 450 0
145 450 0
148 450 0
212 450 0
82 449 0
111 449 0
115 449 0
122 449 0
304 449 0
311 449 0
315 449 0
3 448 0
87 448 0
138 448 0
95 447 0
102 447 0
301 447 0
82 446 0
91 446 0
107 446 0
114 446 0
120 446 0
211 446 0
313 446 0
317 446 0
87 445 0
97 445 0
100 445 0
104 445 0
111 445 0
139 445 0
217 445 0
309 445 0
455 445 0
84 444 0
94 444 0
117 444 0
304 444 0
106 443 0
109 443 0
144 443 0
212 443 0
5 442 0
88 442 0
113 442 0
150 442 0
218 442 0
301 442 0
91 441 0
141 441 0
215 441 0
305 441 0
311 441 0
317 441 0
321 441 0
327 441 0
0 440 0
487 440 0
104 439 0
107 439 0
117 439 0
313 439 0
324 439 0
88 438 0
110 438 0
113 438 0
215 438 0
305 438 0
500 438 0
316 437 0
106 436 0
142 436 0
301 436 0
320 436 0
109 435 0
215 435 0
305 435 0
95 434 0
231 434 0
308 434 0
318 434 0
326 434 0
43 433 0
100 433 0
144 433 0
218 433 0
252 433 0
302 433 0
106 432 0
111 432 0
222 432 0
306 432 0
310 432 0
323 432 0
455 432 0
319 431 0
328 431 0
98 430 0
146 430 0
303 430 0
62 429 0
92 429 0
217 429 0
307 429 0
325 429 0
103 428 0
112 428 0
220 428 0
245 428 0
249 428 0
331 428 0
95 427 0
303 427 0
319 427 0
322 427 0
30 426 0
59 426 0
108 426 0
216 426 0
307 426 0
310 426 0
334 426 0
48 425 0
150 425 0
220 425 0
242 425 0
328 425 0
339 425 0
238 424 0
245 424 0
304 424 0
321 424 0
324 424 0
300 423 0
311 423 0
234 422 0
319 422 0
334 422 0
217 421 0
230 421 0
241 421 0
244 421 0
305 421 0
309 421 0
455 421 0
153 420 0
238 420 0
300 420 0
324 420 0
327 420 0
330 420 0
157 419 0
225 419 0
235 419 0
246 419 0
319 419 0
221 418 0
232 418 0
240 418 0
243 418 0
302 418 0
305 418 0
332 418 0
337 418 0
248 417 0
298 417 0
311 417 0
321 417 0
324 417 0
327 417 0
340 417 0
154 416 0
216 416 0
229 416 0
369 416 0
373 416 0
378 416 0
386 416 0
390 416 0
455 416 0
66 415 0
213 415 0
225 415 0
300 415 0
304 415 0
331 415 0
365 415 0
45 414 0
70 414 0
237 414 0
248 414 0
255 414 0
307 414 0
320 414 0
328 414 0
339 414 0
360 414 0
399 414 0
403 414 0
220 413 0
252 413 0
297 413 0
312 413 0
325 413 0
334 413 0
355 413 0
380 413 0
49 412 0
75 412 0
215 412 0
231 412 0
242 412 0
246 412 0
303 412 0
344 412 0
348 412 0
352 412 0
375 412 0
390 412 0
394 412 0
409 412 0
454 412 0
154 411 0
225 411 0
229 411 0
235 411 0
238 411 0
249 411 0
254 411 0
285 411 0
289 411 0
293 411 0
299 411 0
306 411 0
309 411 0
321 411 0
329 411 0
339 411 0
367 411 0
371 411 0
217 410 0
220 410 0
258 410 0
262 410 0
276 410 0
281 410 0
314 410 0
317 410 0
324 410 0
333 410 0
360 410 0
363 410 0
401 410 0
405 410 0
412 410 0
267 409 0
353 409 0
356 409 0
417 409 0
502 409 0
55 408 0
271 408 0
310 408 0
335 408 0
343 408 0
346 408 0
350 408 0
408 408 0
454 408 0
60 407 0
277 407 0
295 407 0
302 407 0
451 407 0
222 406 0
225 406 0
228 406 0
231 406 0
236 406 0
240 406 0
247 406 0
252 406 0
255 406 0
298 406 0
306 406 0
311 406 0
315 406 0
341 406 0
412 406 0
421 406 0
448 406 0
465 406 0
479 406 0
498 406 0
57 405 0
155 405 0
214 405 0
219 405 0
233 405 0
238 405 0
244 405 0
262 405 0
269 405 0
308 405 0
322 405 0
331 405 0
337 405 0
347 405 0
406 405 0
409 405 0
416 405 0
425 405 0
442 405 0
462 405 0
469 405 0
476 405 0
226 404 0
230 404 0
242 404 0
248 404 0
251 404 0
257 404 0
277 404 0
304 404 0
317 404 0
335 404 0
354 404 0
402 404 0
433 404 0
437 404 0
489 404 0
63 403 0
181 403 0
189 403 0
260 403 0
265 403 0
283 403 0
286 403 0
290 403 0
342 403 0
350 403 0
363 403 0
399 403 0
422 403 0
430 403 0
445 403 0
450 403 0
454 403 0
458 403 0
493 403 0
157 402 0
185 402 0
224 402 0
227 402 0
231 402 0
279 402 0
293 402 0
300 402 0
310 402 0
313 402 0
337 402 0
345 402 0
360 402 0
366 402 0
405 402 0
408 402 0
440 402 0
221 401 0
269 401 0
276 401 0
297 401 0
303 401 0
339 401 0
348 401 0
352 401 0
355 401 0
372 401 0
375 401 0
426 401 0
437 401 0
491 401 0
161 400 0
273 400 0
284 400 0
289 400 0
357 400 0
207 399 0
211 399 0
249 399 0
256 399 0
260 399 0
279 399 0
292 399 0
301 399 0
312 399 0
315 399 0
360 399 0
363 399 0
423 399 0
432 399 0
456 399 0
460 399 0
495 399 0
499 399 0
164 398 0
239 398 0
243 398 0
246 398 0
265 398 0
282 398 0
295 398 0
298 398 0
420 398 0
429 398 0
440 398 0
463 398 0
490 398 0
168 397 0
231 397 0
236 397 0
252 397 0
268 397 0
277 397 0
339 397 0
346 397 0
366 397 0
417 397 0
425 397 0
434 397 0
466 397 0
471 397 0
485 397 0
501 397 0
508 397 0
511 397 0
227 396 0
238 396 0
242 396 0
245 396 0
249 396 0
260 396 0
263 396 0
271 396 0
280 396 0
285 396 0
290 396 0
293 396 0
315 396 0
327 396 0
341 396 0
353 396 0
422 396 0
437 396 0
476 396 0
482 396 0
220 395 0
224 395 0
229 395 0
233 395 0
256 395 0
345 395 0
349 395 0
357 395 0
369 395 0
453 395 0
456 395 0
460 395 0
504 395 0
217 394 0
226 394 0
231 394 0
240 394 0
244 394 0
266 394 0
274 394 0
288 394 0
312 394 0
323 394 0
332 394 0
339 394 0
342 394 0
347 394 0
351 394 0
355 394 0
361 394 0
364 394 0
373 394 0
413 394 0
420 394 0
434 394 0
439 394 0
443 394 0
446 394 0
449 394 0
463 394 0
469 394 0
474 394 0
480 394 0
40 393 0
169 393 0
211 393 0
236 393 0
242 393 0
247 393 0
254 393 0
263 393 0
285 393 0
317 393 0
327 393 0
353 393 0
358 393 0
407 393 0
410 393 0
417 393 0
431 393 0
484 393 0
502 393 0
214 392 0
219 392 0
224 392 0
229 392 0
239 392 0
251 392 0
257 392 0
270 392 0
278 392 0
322 392 0
331 392 0
335 392 0
338 392 0
343 392 0
346 392 0
349 392 0
369 392 0
427 392 0
458 392 0
487 392 0
205 391 0
261 391 0
266 391 0
275 391 0
290 391 0
295 391 0
314 391 0
318 391 0
326 391 0
329 391 0
356 391 0
413 391 0
419 391 0
423 391 0
455 391 0
492 391 0
496 391 0
499 391 0
255 390 0
281 390 0
[...]
CELL_DATA 2436
COLOR_SCALARS lut 1
0.123204
0.127324
0.132851
0.114871
0.12458
0.16261
0.121547
0.116217
0.11582
0.169553
0.277367
0.131018
0.128326
0.120134
0.133964
0.149449
0.156312
0.158236
0.121105
0.127976
0.133058
0.125356
0.131316
0.156519
0.152049
0.166925
0.122603
0.122993
0.249154
0.140348
0.135147
0.131246
0.143569
0.190959
0.126837
0.127656
0.132232
0.134764
0.124571
0.12895
0.13251
0.266117
0.136914
0.134976
0.135151
0.123311
0.136886
0.155338
0.191333
0.199741
0.174253
0.157364
0.134233
0.133846
0.190246
0.216438
0.142097
0.13442
0.122534
0.131647
0.132628
0.145674
0.155829
0.149906
0.137641
0.135769
0.137473
0.136034
0.133511
0.131477
0.136223
0.142011
0.149386
0.158377
0.169621
0.149946
0.13713
0.132352
0.124777
0.132069
0.135646
0.138769
0.142786
0.154036
0.156055
0.163486
0.140344
0.140881
0.135642
0.309151
0.407107
0.144854
0.13889
0.131721
0.129823
0.132828
0.209794
0.144952
0.157239
0.139682
0.131644
0.129489
0.129053
0.130623
0.142356
0.157772
0.14774
0.149872
0.164571
0.152719
0.140022
0.137844
0.143642
0.14688
0.172038
0.358601
0.350418
0.141823
0.137861
0.140156
0.161115
0.222872
0.157031
0.161029
0.149833
0.142401
0.138907
0.147548
0.149954
0.159321
0.169996
0.156505
0.143436
0.140435
0.144975
0.163508
0.163472
0.168522
0.18504
0.149533
0.145798
0.15384
0.167207
0.411307
0.160008
0.153132
0.147718
0.147821
0.150457
0.164305
0.160851
0.163367
0.167246
0.173096
0.178288
0.187337
0.235568
0.208569
0.177268
0.166081
0.173113
0.150176
0.150509
0.207588
0.186562
0.206188
0.212442
0.458922
0.152841
0.149498
0.14904
0.170309
0.169416
0.199
0.177153
0.640287
0.156881
0.157558
0.158757
0.169719
0.227759
0.247115
0.184565
0.173965
0.190784
0.197194
0.217032
0.284691
0.543904
0.163484
0.1673
0.176974
0.226147
0.174608
0.236506
0.240495
0.238512
0.236345
0.150237
0.153757
0.152958
0.197777
0.190607
0.325983
0.267589
0.186478
0.238469
0.244156
0.535155
0.179448
0.212578
0.263219
0.15762
0.161534
0.162123
0.162298
0.161538
0.159039
0.157425
0.198061
0.204864
0.265566
0.594099
0.15933
0.187586
0.258615
0.16242
0.212456
0.181961
0.178614
0.846377
0.157785
0.298096
0.191009
0.165722
0.161653
0.212843
0.23214
0.178894
0.284092
0.162465
0.168114
0.176761
0.182335
0.188759
0.193365
0.197182
0.198823
0.19663
0.191962
0.184345
0.185942
0.19611
0.20241
0.181667
0.162571
0.193841
0.161902
0.171
0.176059
0.216233
0.184607
0.174598
0.217222
0.307736
0.658668
0.168306
0.16114
0.176523
0.138733
0.198919
0.291103
0.239223
0.187078
0.174466
0.210264
0.174387
0.228847
0.177773
0.658558
1
0.192039
0.188981
0.17775
0.164838
0.209494
0.239969
0.312806
0.145176
0.177346
0.156841
0.15878
0.165642
0.169908
0.174028
0.167219
0.162624
0.159932
0.171576
0.258606
0.17633
0.173108
0.208086
0.188044
0.177612
0.170451
0.166254
0.166386
0.171518
0.186262
0.163317
0.187596
0.15835
0.175224
0.265754
0.18001
0.18229
0.169309
0.23726
0.313756
0.185923
0.190973
0.195641
0.173017
0.174876
0.171171
0.164106
0.190803
0.163311
0.164249
0.177825
0.615979
0.187355
0.16029
0.16243
0.16563
0.170448
0.174839
0.167695
0.163066
0.158852
0.156145
0.236038
0.167047
0.21321
0.24893
0.168734
0.172073
0.199819
0.162208
0.166916
0.189719
0.166099
0.232643
0.213463
0.189779
0.175308
0.158676
0.219352
0.159187
0.319907
0.203794
0.179411
0.168103
0.1651
0.163271
0.221479
0.605275
0.202958
0.169695
0.160656
0.158703
0.982842
0.306589
0.337836
0.189991
0.182154
0.184597
0.163547
0.166358
0.204145
0.661844
0.182851
0.18336
0.16799
0.164401
0.166004
0.196093
0.173242
0.16794
0.159909
0.190476
0.19371
0.195459
0.194955
0.190716
0.186406
0.17677
0.17873
0.226302
0.201317
0.170246
0.179467
0.235905
0.165039
0.183791
0.296995
0.310601
0.236165
0.168887
0.216903
0.185156
0.176912
0.220925
0.247045
0.251076
0.26
0.25003
0.236472
0.896924
0.252109
0.264869
0.188967
0.197514
0.178503
0.204041
0.30027
0.270285
0.28845
0.281825
0.263862
0.249919
0.240415
0.23479
0.235937
0.239164
0.242436
0.242944
0.239146
0.231027
0.216845
0.202865
0.188334
0.175533
0.164556
0.162459
0.167184
0.178784
0.188895
0.19064
0.230885
0.172126
0.182341
0.186151
0.206035
0.196703
0.283618
0.176977
0.244487
0.514786
0.288555
0.164451
0.182544
0.212523
0.202223
0.218783
0.276801
0.205029
0.191026
0.203209
0.234281
0.309624
0.301794
0.332995
0.26139
0.180284
0.220465
0.166355
0.17525
0.3232
0.228843
0.173479
0.190902
0.217265
0.252411
0.282448
0.270094
0.303011
0.196585
0.172326
0.175855
0.184963
0.209471
0.24063
0.2833
0.244929
0.801564
0.22756
0.176036
0.249856
0.258968
0.198972
0.210937
0.244911
0.280046
0.317824
0.210236
0.237064
0.285659
0.275792
0.281058
0.200003
0.268466
0.266563
0.22805
0.212219
0.241999
0.27526
0.336117
0.285104
0.503997
0.211996
0.22377
0.29294
0.205241
0.282274
0.243118
0.245651
0.265775
0.263696
0.212369
0.395409
0.208725
0.243073
0.315978
0.248715
0.229046
0.268157
0.262758
0.201888
0.243414
0.30827
0.184994
0.208484
0.263499
0.329758
0.256435
0.336395
0.243287
0.466774
0.225448
0.292323
0.321038
0.238221
0.188622
0.178885
0.233551
0.72247
0.206686
0.261765
0.295499
0.350132
0.206585
0.371712
0.317686
0.243111
0.179046
0.235748
0.349092
0.399508
0.225565
0.310232
0.341849
0.260944
0.344396
0.19863
0.199584
0.214883
0.460828
0.341516
0.416461
0.247144
0.173945
0.170741
0.260182
0.306028
0.349884
0.216227
0.25221
0.233349
0.282809
0.226771
0.254331
0.183214
0.20362
0.217064
0.214456
0.167632
0.19944
0.190302
0.226739
0.219441
0.188676
0.204219
0.214802
0.171083
0.163221
0.535532
0.337608
0.188268
0.200772
0.20396
0.20993
0.210781
0.349744
0.177578
0.176528
0.204078
0.182453
0.181892
0.168591
0.175774
0.182952
0.177616
0.164187
0.197497
0.200056
0.195875
0.201794
0.157366
0.182764
0.19147
0.195167
0.200757
0.329459
0.208963
0.158682
0.266608
0.284582
0.326345
0.40404
0.4172
0.418177
0.315653
0.24264
0.159053
0.176528
0.159634
0.180814
0.243615
0.35503
0.335998
0.148384
0.170964
0.210055
0.151799
0.168532
0.179454
0.173435
0.225011
0.36815
0.367285
0.169216
0.182429
0.182471
0.150321
0.174725
0.166049
0.207814
0.316477
0.331392
0.384997
0.206482
0.141532
0.144816
0.15237
0.154318
0.171862
0.183339
0.192309
0.259496
0.368927
0.356566
0.345877
0.333014
0.331866
0.146752
0.140586
0.137386
0.138125
0.156268
0.175653
0.228976
0.212315
0.191035
0.163095
0.147704
0.14613
0.160852
0.165101
0.156116
0.207387
0.225167
0.182083
0.16214
0.183916
0.198869
0.22729
0.225141
0.147095
0.150955
0.162766
0.155254
0.184896
0.190386
0.306351
0.300933
0.320865
0.201985
0.168493
0.172348
0.323376
0.268335
0.317793
0.198626
0.143878
0.147503
0.148091
0.152275
0.158272
0.277462
0.262043
0.309288
0.194894
0.162036
0.148448
0.255621
0.147652
0.139275
0.134185
0.131224
0.129829
0.130947
0.137297
0.145885
0.151689
0.153186
0.145666
0.144162
0.145499
0.141101
0.260635
0.280695
0.255406
0.261108
0.284007
0.236914
0.328811
0.344953
0.198339
0.16005
0.129761
0.129818
0.133257
0.159668
0.170609
0.145775
0.153732
0.150224
0.141106
0.142663
0.251063
0.247781
0.256684
0.26958
0.266051
0.237641
0.259083
0.270252
0.136203
0.131173
0.131725
0.137666
0.141826
0.149676
0.175207
0.148551
0.148024
0.142821
0.146636
0.265461
0.25763
0.258581
0.231528
0.332491
0.423068
0.438111
0.150617
0.155457
0.173062
0.170741
0.163695
0.136452
0.139998
0.163196
0.289872
0.240213
0.24163
0.23013
0.21355
0.20581
0.208303
0.210169
0.348426
0.421454
0.139936
0.134426
0.130681
0.169128
0.15665
0.152381
0.149375
0.148187
0.139026
0.135564
0.152109
0.172946
0.24484
0.233373
0.229734
0.148748
0.155126
0.164515
0.153492
0.153887
0.136359
0.135366
0.137761
0.140812
0.213358
0.246661
0.219817
0.221251
0.196843
0.335151
0.159322
0.16506
0.159985
0.142263
0.260504
0.213783
0.144262
0.14883
0.148098
0.163634
0.155431
0.157174
0.152526
0.150815
0.147451
0.156583
0.208413
0.204147
0.187468
0.190605
0.176455
0.174501
0.331277
0.134673
0.138209
0.14202
0.148843
0.162618
0.154295
0.156253
0.207477
0.199343
0.200563
0.190515
0.179426
0.326521
0.133813
0.134116
0.151748
0.151666
0.16187
0.134366
0.132292
0.168687
0.208885
0.199524
0.196441
0.189836
0.193876
0.187467
0.163133
0.151406
0.141005
0.138257
0.136318
0.139896
0.144028
0.150537
0.15119
0.149806
0.15637
0.161714
0.158376
0.153719
0.152874
0.150688
0.146189
0.132703
0.135071
0.202091
0.195749
0.192553
0.189026
0.155867
0.144776
0.137504
0.135829
0.156003
0.131993
0.132908
0.140031
0.189395
0.188628
0.188357
0.188208
0.152571
0.170073
0.142952
0.137788
0.140344
0.14541
0.152754
0.162655
0.152924
0.153234
0.144038
0.139066
0.13307
0.131995
0.132424
0.134018
0.137488
0.150149
0.161202
0.232024
0.216517
0.206436
0.196075
0.197554
0.197289
0.196033
0.193984
0.188365
0.185412
0.186254
0.185282
0.460315
0.330462
0.21111
0.139212
0.143719
0.152186
0.160097
0.152893
0.155777
0.145472
0.140573
0.135791
0.143015
0.244139
0.22765
0.212699
0.198732
0.178813
0.150764
0.191418
0.166662
0.151874
0.143537
0.142106
0.160048
0.158768
0.161193
0.165795
0.140683
0.137191
0.134645
0.132775
0.131713
0.132268
0.133362
0.194818
0.205074
0.200271
0.172617
0.275937
0.155144
0.156698
0.168911
0.147752
0.148324
0.146119
0.1415
0.13751
0.136656
0.14062
0.226586
0.218826
0.214865
0.208271
0.162917
0.156759
0.15355
0.161501
0.163819
0.149188
0.136526
0.132251
0.132606
0.134234
0.138239
0.148298
0.158504
0.244643
0.222594
0.221076
0.218403
0.192679
0.151423
0.146502
0.133743
0.159178
0.165117
0.170728
0.170731
0.157485
0.14412
0.13785
0.133318
0.132392
0.131553
0.174247
0.236054
0.22926
0.230952
0.233266
0.196143
0.195578
0.193686
0.44115
0.348323
0.149514
0.156737
0.158379
0.144634
0.149946
0.14299
0.139418
0.133213
0.24993
0.241655
0.241084
0.285307
0.189484
0.151436
0.156549
0.161391
0.176197
0.166346
0.15217
0.136561
0.131607
0.131354
0.302119
0.253829
0.195414
0.175475
0.163345
0.38184
0.242983
0.324268
0.298231
0.253411
0.22611
0.210218
0.182389
0.170244
0.153803
0.158871
0.155828
0.172992
0.140193
0.139684
0.143265
0.134302
0.130623
0.132133
0.133882
0.165891
0.211924
0.283519
0.213136
0.176513
0.158202
0.27493
0.231486
0.239221
0.298473
0.166396
0.161333
0.165727
0.13959
0.130951
0.144709
0.284244
0.229405
0.230478
0.230313
0.200686
0.41164
0.282985
0.249895
0.310641
0.157387
0.153679
0.152291
0.17603
0.172643
0.165256
0.156086
0.144642
0.136328
0.132869
0.13014
0.132504
0.135975
0.161427
0.180552
0.239653
0.230956
0.189862
0.17795
0.165315
0.215167
0.15719
0.155477
0.154432
0.170862
0.139263
0.139612
0.139083
0.137534
0.135341
0.129372
0.129612
0.130711
0.250855
0.161319
0.226001
0.217866
0.295278
0.164083
0.152203
0.158998
0.14455
0.136072
0.137635
0.12952
0.13226
0.140696
0.146739
0.174496
0.206401
0.243513
0.207486
0.202097
0.203465
0.247474
0.146348
0.161796
0.138567
0.133586
0.138427
0.136651
0.134188
0.129284
0.130264
0.13472
0.156454
0.194779
0.153995
0.149719
0.164568
0.165375
0.146464
0.130939
0.134593
0.137255
0.132597
0.129762
0.13146
0.139836
0.16919
0.232279
0.19724
0.310193
0.143118
0.149439
0.151859
0.131653
0.137577
0.129304
0.146206
0.185917
0.275105
0.358222
0.210242
0.185297
0.184469
0.267404
0.148069
0.140433
0.141347
0.155173
0.15929
0.13107
0.129471
0.136487
0.137824
0.134506
0.130941
0.138575
0.157864
0.208585
0.308906
0.178987
0.200543
0.14125
0.141612
0.153725
0.132617
0.128999
0.133982
0.136743
0.135742
0.131473
0.129904
0.142367
0.173791
0.184076
0.316338
0.146164
0.152093
0.136498
0.136158
0.13262
0.129013
0.133609
0.139138
0.15367
0.19772
0.257767
0.198039
0.172369
0.137226
0.136384
0.139477
0.132717
0.129402
0.127641
0.133873
0.133293
0.163662
0.170447
0.221498
0.243672
0.148584
0.137947
0.127743
0.131082
0.130109
0.128757
0.132687
0.148864
0.181924
0.361208
0.178015
0.170732
0.209373
0.312754
0.156215
0.128327
0.131798
0.131705
0.127616
0.230908
0.2061
0.187671
0.179263
0.191653
0.201915
0.172456
0.135102
0.138993
0.142943
0.140781
0.137766
0.134076
0.129533
0.127339
0.153823
0.214113
0.171783
0.306868
0.133993
0.129561
0.127267
0.125769
0.127118
0.13273
0.143485
0.178182
0.214485
0.4047
0.272921
0.225794
0.16832
0.138445
0.135951
0.135526
0.140375
0.139219
0.135629
0.1268
0.137635
0.139934
0.159676
0.263015
0.165285
0.211731
0.243192
0.264113
0.20783
0.134746
0.133151
0.131491
0.128895
0.126741
0.124682
0.127273
0.134322
0.136037
0.146289
0.198338
0.162888
0.139413
0.133702
0.132649
0.13756
0.136109
0.125612
0.123352
0.123348
0.124133
0.12496
0.124575
0.124295
0.125574
0.130288
0.226155
0.211683
0.311799
0.15904
0.147
0.13699
0.133168
0.124111
0.128017
0.132318
0.134203
0.137772
0.166079
0.182798
0.263226
0.43982
0.250451
0.219803
0.191712
0.203761
0.262383
0.249398
0.135014
0.132018
0.132878
0.13481
0.135402
0.134707
0.13173
0.125262
0.122877
0.123298
0.125253
0.134406
0.16114
0.22416
0.136522
0.133589
0.132998
0.134766
0.122386
0.122386
0.122332
0.126221
0.129537
0.132406
0.155259
0.202009
0.198817
0.162384
0.277705
0.139528
0.130659
0.133528
0.134492
0.134022
0.122672
0.121753
0.121895
0.12739
0.140213
0.229053
0.285501
0.158887
0.223948
0.305327
0.138054
0.134379
0.131195
0.123769
0.121195
0.121042
0.121014
0.121119
0.130192
0.143829
0.181968
0.212779
0.16337
0.272539
0.298777
0.328228
0.176199
0.136768
0.132356
0.120574
0.135267
0.16327
0.430027
0.244385
0.169289
0.281543
0.295044
0.175088
0.140292
0.135405
0.130194
0.130258
0.131428
0.12653
0.122173
0.120838
0.122101
0.123586
0.132862
0.140361
0.150311
0.207296
0.2547
0.190414
0.181305
0.143565
0.138897
0.131391
0.129939
0.133412
0.120062
0.134552
0.13712
0.180703
0.162029
0.242558
0.323827
0.191022
0.167135
0.166555
0.136486
0.135839
0.132948
0.124139
0.119411
0.119954
0.123069
0.125197
0.133087
0.14354
0.158483
0.239508
0.158539
0.221529
0.293481
0.146539
0.140429
0.138113
0.121637
0.119551
0.128163
0.13502
0.24011
0.392099
0.294655
0.168153
0.196989
0.157108
0.136634
0.139385
0.140629
0.132489
0.128753
0.120211
0.119528
0.13062
0.140157
0.163366
0.315361
0.297333
0.15044
0.13236
0.135875
0.143462
0.137188
0.126547
0.123519
0.124624
0.128254
0.134268
0.209826
0.3487
0.231433
0.167048
0.160227
0.132944
0.140107
0.133456
0.123104
0.133299
0.13691
0.153264
0.184165
0.255633
0.225235
0.199062
0.179366
0.16204
0.170751
0.134436
0.136017
0.139254
0.146739
0.150576
0.124568
0.121179
0.131859
0.139823
0.361142
0.166433
0.120729
0.123007
0.141939
0.168104
0.287323
0.282691
0.125041
0.121914
0.121448
0.131003
0.220946
0.166121
0.19612
0.222391
0.156662
0.155991
0.143468
0.140907
0.138722
0.152909
0.124245
0.129276
0.147939
0.172452
0.149382
0.139393
0.166112
0.166171
0.146057
0.147166
0.155968
0.320791
0.171418
0.288657
0.241558
0.177971
0.166818
0.159383
0.154785
0.1403
0.151895
0.181753
0.182741
0.14404
0.124866
0.128501
0.269277
0.18906
0.170511
0.20146
0.267494
0.212452
0.197088
0.156871
0.147966
0.14351
0.141344
0.144429
0.149189
0.165828
0.175348
0.185928
0.174023
0.123639
0.126549
0.151243
0.156473
0.15614
0.145053
0.164298
0.145131
0.13706
0.130007
0.139322
0.151818
0.173813
0.297226
0.229921
0.155251
0.145092
0.164146
0.135236
0.136994
0.251383
0.293383
0.301055
0.175669
0.187395
0.206515
0.255057
0.150533
0.147497
0.126477
0.143809
0.149425
0.216634
0.157949
0.161625
0.152055
0.152736
0.13532
0.127053
0.195001
0.183985
0.316604
0.16156
0.145267
0.133267
0.132144
0.318871
0.17591
0.182987
0.278239
0.159492
0.155371
0.12789
0.142555
0.177565
0.220379
0.271703
0.174646
0.204533
0.165991
0.157842
0.163717
0.133722
0.139316
0.338799
0.359499
0.173545
0.167721
0.146266
0.136069
0.129723
0.144173
0.148879
0.165548
0.189007
0.208313
0.290938
0.304434
0.254377
0.252648
0.168179
0.168001
0.132282
0.133561
0.140038
0.155141
0.254337
0.257583
0.173448
0.1775
0.188771
0.221712
0.271371
0.295129
0.272876
0.175058
0.18949
0.139205
0.145036
0.157407
0.174361
0.242558
0.168174
0.175593
0.1612
0.146234
0.134715
0.154364
0.367871
0.225715
0.185195
0.170843
0.180441
0.201592
0.136263
0.139623
0.170201
0.190403
0.218785
0.28963
0.302106
0.276963
0.203921
0.170054
0.185577
0.190584
0.20085
0.157432
0.154457
0.153112
0.28684
0.375447
0.251598
0.193985
0.234241
0.240548
0.255148
0.191256
0.140483
0.14231
0.155354
0.187039
0.215687
0.191398
0.176701
0.163027
0.166317
0.179312
0.305585
0.225624
0.157173
0.168978
0.264045
0.352093
0.283998
0.220937
0.262044
0.195442
0.180238
0.215166
0.152198
0.152196
0.153677
0.159869
0.276447
0.230994
0.191191
0.203066
0.349278
0.168087
0.162938
0.296874
0.227366
0.177991
0.175035
0.217971
0.211827
0.165343
0.16049
0.154867
0.261403
0.341187
0.211496
0.18347
0.288362
0.156453
0.161036
0.198007
0.34423
0.194388
0.166473
0.230729
0.247926
0.154238
0.255933
0.244505
0.179928
0.295969
0.183084
0.179823
0.160244
0.255771
0.341168
0.184246
0.233797
0.276283
0.235554
0.197257
0.269406
0.231778
0.213635
0.292137
0.176051
0.191032
0.158156
0.254872
0.18368
0.224065
0.207346
0.254543
0.231487
0.202442
0.293875
0.252974
0.188624
0.167373
0.168614
0.196773
0.264303
0.254942
0.19835
0.210275
0.320511
0.256477
0.216153
0.213591
0.197376
0.19276
0.278662
0.195789
0.200855
0.221885
0.242035
0.239781
0.242944
0.225306
0.186984
0.171119
0.192466
0.267
0.219625
0.176092
0.238696
0.204928
0.301556
0.218401
0.275099
0.251639
0.207912
0.22847
0.250451
0.25148
0.246647
0.238668
0.246052
0.217892
0.192711
0.215602
0.264416
0.241727
0.251821
0.19885
0.209016
0.232613
0.193955
0.285964
0.271256
0.268224
0.241284
0.2137
0.197921
0.232522
0.238286
0.327432
0.272427
0.246759
0.275625
0.216094
0.261827
0.223836
0.264542
0.263526
0.195267
0.200261
0.255964
0.292201
0.2455
0.219454
0.24073
0.207807
0.225162
0.289778
0.261345
0.222887
0.280816
0.252135
0.23331
0.196479
0.187797
0.266485
0.266224
0.204039
0.199547
0.24011
0.292266
0.202886
0.221192
0.283067
0.305708
0.269124
0.245303
0.28399
0.250846
0.200182
0.300177
0.275965
0.276721
0.205956
0.310599
0.197497
0.313297
0.262143
0.257209
0.186636
0.324004
0.274363
0.244355
0.272966
0.272318
0.292356
0.180394
0.219106
0.243204
0.188282
0.216846
0.32617
0.321813
0.261813
0.175459
0.320686
0.259848
0.257574
0.265619
0.212124
0.24671
0.271245
0.250677
0.170712
0.192018
0.217657
0.233188
0.252763
0.317877
0.245796
0.276151
0.196317
0.20446
0.22031
0.229103
0.336743
0.291093
0.165494
0.182297
0.265726
0.163155
0.332798
0.171821
0.224624
0.349622
0.177604
0.276209
0.199764
0.239693
0.169388
0.160792
0.231507
0.36973
0.281766
0.163375
0.163951
0.166328
0.184
0.154788
0.165886
0.169038
0.201998
0.164969
0.256538
0.304032
0.159915
0.18676
0.212029
0.25509
0.387254
0.291234
0.173836
0.152551
0.221437
0.261143
0.228942
0.163262
0.156998
0.15838
0.155377
0.150097
0.194339
0.445649
0.306382
0.169144
0.158015
0.232475
0.239326
0.313304
0.299228
0.322057
0.157849
0.165663
0.176005
0.19407
0.245201
0.41959
0.182632
0.146941
0.15113
0.1774
0.279728
0.344331
0.318227
0.158935
0.332517
0.168485
0.153273
0.147162
0.279244
0.14596
0.160698
0.213529
0.3417
0.158579
0.1584
0.174326
0.265583
0.145746
0.186026
0.264386
0.313196
0.344173
0.2172
0.232401
0.167325
0.151532
0.589349
0.146943
0.142186
0.147191
0.192226
0.147522
0.1627
0.156768
0.139712
0.155209
0.261374
0.368676
0.146539
0.138689
0.214374
0.438722
0.318231
0.329193
0.26574
0.198805
0.15189
0.178786
0.250904
0.664059
0.298879
0.309178
0.140644
0.182577
0.164201
0.363906
0.148236
0.135561
0.305116
0.134557
0.148843
0.287833
0.313697
0.200393
0.403619
0.308738
0.240415
0.17125
0.156676
0.17237
0.299155
0.143661
0.134669
0.132394
0.132747
0.172385
0.239208
0.293853
0.164295
0.208863
0.67375
0.133676
0.133377
0.139452
0.165454
0.22798
0.298833
0.298701
0.192641
0.133765
0.201491
0.359763
0.290238
0.173504
0.171454
0.333244
0.136222
0.286888
0.314041
0.171928
0.130277
0.12898
0.133024
0.365219
0.603803
0.342892
0.130687
0.149733
0.386557
0.353524
0.266147
0.181459
0.126986
0.128275
0.274542
0.216533
0.185161
0.188838
0.21036
0.1341
0.175287
0.224789
0.28925
0.254548
0.383506
0.130172
0.404555
0.341092
0.307091
0.27778
0.21665
0.25131
0.227138
0.48329
0.183003
0.250448
0.131085
0.298518
0.241143
0.232249
0.13016
0.152741
0.170236
0.241925
0.374443
0.448096
0.265948
0.228835
0.247248
0.249221
0.258275
0.130141
0.272288
0.249393
0.280237
0.414073
0.134752
0.144607
0.462357
0.326317
0.264683
0.270156
0.314326
0.342387
0.542788
0.214708
0.361072
0.296771
0.135203
0.192255