# vtk DataFile Version 1.0
Unstructured Grid Example
ASCII

DATASET UNSTRUCTURED_GRID
POINTS 2692 float
1 513 0
4 513 0
7 513 0
10 513 0
13 513 0
17 513 0
21 513 0
25 513 0
28 513 0
32 513 0
38 513 0
47 513 0
50 513 0
53 513 0
56 513 0
60 513 0
67 513 0
71 513 0
75 513 0
94 513 0
97 513 0
101 513 0
104 513 0
109 513 0
113 513 0
117 513 0
120 513 0
124 513 0
132 513 0
136 513 0
140 513 0
143 513 0
147 513 0
151 513 0
155 513 0
158 513 0
162 513 0
165 513 0
169 513 0
173 513 0
177 513 0
180 513 0
183 513 0
187 513 0
192 513 0
195 513 0
198 513 0
202 513 0
208 513 0
216 513 0
224 513 0
231 513 0
239 513 0
250 513 0
260 513 0
262 513 0
271 513 0
278 513 0
288 513 0
294 513 0
300 513 0
305 513 0
309 513 0
312 513 0
316 513 0
325 513 0
330 513 0
335 513 0
341 513 0
347 513 0
353 513 0
360 513 0
369 513 0
386 513 0
407 513 0
423 513 0
434 513 0
442 513 0
448 513 0
453 513 0
457 513 0
461 513 0
465 513 0
469 513 0
476 513 0
482 513 0
492 513 0
498 513 0
503 513 0
507 513 0
512 513 0
34 512 0
42 512 0
63 512 0
73 512 0
80 512 0
87 512 0
128 512 0
160 512 0
0 511 0
29 511 0
39 511 0
44 511 0
70 511 0
84 511 0
90 511 0
106 511 0
154 511 0
164 511 0
320 511 0
17 510 0
20 510 0
41 510 0
78 510 0
125 510 0
156 510 0
161 510 0
512 510 0
30 509 0
36 509 0
62 509 0
66 509 0
69 509 0
317 509 0
23 508 0
34 508 0
38 508 0
48 508 0
73 508 0
93 508 0
107 508 0
127 508 0
131 508 0
134 508 0
157 508 0
163 508 0
196 508 0
199 508 0
0 507 0
21 507 0
40 507 0
54 507 0
65 507 0
66 507 0
79 507 0
90 507 0
137 507 0
142 507 0
145 507 0
155 507 0
165 507 0
168 507 0
174 507 0
179 507 0
182 507 0
185 507 0
188 507 0
191 507 0
18 506 0
36 506 0
43 506 0
51 506 0
63 506 0
67 506 0
72 506 0
77 506 0
84 506 0
87 506 0
95 506 0
150 506 0
153 506 0
171 506 0
314 506 0
457 506 0
22 505 0
31 505 0
45 505 0
58 505 0
61 505 0
107 505 0
143 505 0
512 505 0
0 504 0
16 504 0
33 504 0
47 504 0
50 504 0
53 504 0
56 504 0
71 504 0
139 504 0
146 504 0
178 504 0
12 503 0
19 503 0
37 503 0
42 503 0
67 503 0
77 503 0
95 503 0
312 503 0
316 503 0
34 502 0
45 502 0
59 502 0
87 502 0
107 502 0
143 502 0
0 501 0
15 501 0
22 501 0
39 501 0
47 501 0
62 501 0
65 501 0
172 501 0
179 501 0
512 501 0
18 500 0
44 500 0
50 500 0
57 500 0
85 500 0
168 500 0
175 500 0
182 500 0
24 499 0
38 499 0
60 499 0
143 499 0
313 499 0
0 498 0
16 498 0
21 498 0
48 498 0
52 498 0
55 498 0
66 498 0
77 498 0
80 498 0
83 498 0
87 498 0
90 498 0
94 498 0
107 498 0
135 498 0
140 498 0
157 498 0
166 498 0
4 497 0
40 497 0
99 497 0
172 497 0
181 497 0
184 497 0
309 497 0
23 496 0
30 496 0
33 496 0
61 496 0
74 496 0
137 496 0
161 496 0
456 496 0
0 495 0
7 495 0
43 495 0
47 495 0
58 495 0
102 495 0
107 495 0
140 495 0
156 495 0
165 495 0
168 495 0
177 495 0
202 495 0
330 495 0
50 494 0
54 494 0
76 494 0
99 494 0
153 494 0
180 494 0
183 494 0
188 494 0
191 494 0
5 493 0
29 493 0
32 493 0
138 493 0
160 493 0
205 493 0
108 492 0
157 492 0
171 492 0
195 492 0
308 492 0
512 492 0
152 491 0
162 491 0
200 491 0
0 490 0
9 490 0
16 490 0
19 490 0
22 490 0
25 490 0
29 490 0
32 490 0
138 490 0
159 490 0
191 490 0
303 490 0
36 489 0
154 489 0
197 489 0
14 488 0
87 488 0
151 488 0
148 487 0
456 487 0
0 486 0
8 486 0
109 486 0
138 486 0
14 485 0
37 485 0
87 485 0
90 485 0
141 485 0
200 485 0
10 484 0
42 484 0
46 484 0
49 484 0
53 484 0
56 484 0
59 484 0
63 484 0
66 484 0
69 484 0
73 484 0
81 484 0
84 484 0
135 484 0
149 484 0
0 483 0
39 483 0
152 483 0
512 483 0
8 482 0
15 482 0
77 482 0
88 482 0
137 482 0
141 482 0
155 482 0
203 482 0
301 482 0
32 481 0
37 481 0
80 481 0
0 480 0
86 480 0
109 480 0
127 480 0
135 480 0
15 479 0
130 479 0
138 479 0
155 479 0
29 478 0
297 478 0
456 478 0
86 477 0
132 477 0
135 477 0
80 476 0
127 476 0
155 476 0
202 476 0
0 475 0
15 475 0
40 475 0
43 475 0
48 475 0
51 475 0
54 475 0
70 475 0
73 475 0
77 475 0
83 475 0
109 475 0
512 475 0
58 474 0
65 474 0
125 474 0
129 474 0
132 474 0
135 474 0
138 474 0
141 474 0
144 474 0
148 474 0
3 473 0
27 473 0
38 473 0
61 473 0
156 473 0
8 472 0
30 472 0
34 472 0
109 472 0
204 472 0
0 471 0
17 471 0
20 471 0
24 471 0
56 471 0
59 471 0
65 471 0
83 471 0
125 471 0
137 471 0
141 471 0
146 471 0
292 471 0
13 470 0
43 470 0
46 470 0
49 470 0
53 470 0
62 470 0
68 470 0
71 470 0
74 470 0
78 470 0
105 470 0
132 470 0
151 470 0
154 470 0
37 469 0
86 469 0
91 469 0
135 469 0
143 469 0
148 469 0
40 468 0
103 468 0
110 468 0
122 468 0
126 468 0
0 467 0
81 467 0
106 467 0
138 467 0
204 467 0
16 466 0
37 466 0
86 466 0
129 466 0
142 466 0
151 466 0
288 466 0
110 465 0
126 465 0
133 465 0
136 465 0
455 465 0
0 464 0
206 464 0
215 464 0
37 463 0
40 463 0
119 463 0
131 463 0
143 463 0
149 463 0
283 463 0
512 463 0
43 462 0
46 462 0
78 462 0
81 462 0
86 462 0
110 462 0
124 462 0
128 462 0
139 462 0
51 461 0
55 461 0
59 461 0
62 461 0
67 461 0
70 461 0
75 461 0
121 461 0
0 460 0
17 460 0
37 460 0
89 460 0
92 460 0
21 459 0
140 459 0
146 459 0
207 459 0
215 459 0
13 458 0
137 458 0
0 457 0
37 457 0
111 457 0
144 457 0
150 457 0
512 457 0
17 456 0
20 456 0
27 456 0
31 456 0
34 456 0
455 456 0
11 455 0
23 455 0
120 455 0
128 455 0
138 455 0
148 455 0
207 455 0
15 453 0
26 453 0
30 453 0
34 453 0
37 453 0
40 453 0
45 453 0
49 453 0
53 453 0
58 453 0
62 453 0
67 453 0
71 453 0
75 453 0
78 453 0
81 453 0
84 453 0
88 453 0
91 453 0
95 453 0
102 453 0
116 453 0
145 453 0
0 452 0
99 452 0
110 452 0
113 452 0
121 452 0
137 452 0
12 451 0
104 451 0
151 451 0
168 451 0
209 451 0
90 450 0
108 450 0
119 450 0
145 450 0
148 450 0
212 450 0
512 450 0
82 449 0
111 449 0
115 449 0
122 449 0
304 449 0
311 449 0
315 449 0
0 448 0
3 448 0
87 448 0
138 448 0
95 447 0
102 447 0
301 447 0
82 446 0
91 446 0
107 446 0
114 446 0
120 446 0
211 446 0
313 446 0
317 446 0
0 445 0
87 445 0
97 445 0
100 445 0
104 445 0
111 445 0
139 445 0
217 445 0
309 445 0
455 445 0
512 445 0
84 444 0
94 444 0
117 444 0
304 444 0
106 443 0
109 443 0
144 443 0
212 443 0
5 442 0
88 442 0
113 442 0
150 442 0
218 442 0
301 442 0
91 441 0
141 441 0
215 441 0
305 441 0
311 441 0
317 441 0
321 441 0
327 441 0
0 440 0
487 440 0
512 440 0
104 439 0
107 439 0
117 439 0
313 439 0
324 439 0
88 438 0
110 438 0
113 438 0
215 438 0
305 438 0
500 438 0
316 437 0
0 436 0
106 436 0
142 436 0
301 436 0
320 436 0
109 435 0
215 435 0
305 435 0
512 435 0
95 434 0
231 434 0
308 434 0
318 434 0
326 434 0
43 433 0
100 433 0
144 433 0
218 433 0
252 433 0
302 433 0
0 432 0
106 432 0
111 432 0
222 432 0
306 432 0
310 432 0
323 432 0
455 432 0
319 431 0
328 431 0
512 431 0
98 430 0
146 430 0
303 430 0
62 429 0
92 429 0
217 429 0
307 429 0
325 429 0
103 428 0
112 428 0
220 428 0
245 428 0
249 428 0
331 428 0
95 427 0
303 427 0
319 427 0
322 427 0
512 427 0
0 426 0
30 426 0
59 426 0
108 426 0
216 426 0
307 426 0
310 426 0
334 426 0
48 425 0
150 425 0
220 425 0
242 425 0
328 425 0
339 425 0
238 424 0
245 424 0
304 424 0
321 424 0
324 424 0
300 423 0
311 423 0
234 422 0
319 422 0
334 422 0
0 421 0
217 421 0
230 421 0
241 421 0
244 421 0
305 421 0
309 421 0
455 421 0
153 420 0
238 420 0
300 420 0
324 420 0
327 420 0
330 420 0
512 420 0
157 419 0
225 419 0
235 419 0
246 419 0
319 419 0
221 418 0
232 418 0
240 418 0
243 418 0
302 418 0
305 418 0
332 418 0
337 418 0
248 417 0
298 417 0
311 417 0
321 417 0
324 417 0
327 417 0
340 417 0
154 416 0
216 416 0
229 416 0
369 416 0
373 416 0
378 416 0
386 416 0
390 416 0
455 416 0
512 416 0
66 415 0
213 415 0
225 415 0
300 415 0
304 415 0
331 415 0
365 415 0
45 414 0
70 414 0
237 414 0
248 414 0
255 414 0
307 414 0
320 414 0
328 414 0
339 414 0
360 414 0
399 414 0
403 414 0
0 413 0
220 413 0
252 413 0
297 413 0
312 413 0
325 413 0
334 413 0
355 413 0
380 413 0
49 412 0
75 412 0
215 412 0
231 412 0
242 412 0
246 412 0
303 412 0
344 412 0
348 412 0
352 412 0
375 412 0
390 412 0
394 412 0
409 412 0
454 412 0
154 411 0
225 411 0
229 411 0
235 411 0
238 411 0
249 411 0
254 411 0
285 411 0
289 411 0
293 411 0
299 411 0
306 411 0
309 411 0
321 411 0
329 411 0
339 411 0
367 411 0
371 411 0
512 411 0
217 410 0
220 410 0
258 410 0
262 410 0
276 410 0
281 410 0
314 410 0
317 410 0
324 410 0
333 410 0
360 410 0
363 410 0
401 410 0
405 410 0
412 410 0
267 409 0
353 409 0
356 409 0
417 409 0
502 409 0
55 408 0
271 408 0
310 408 0
335 408 0
343 408 0
346 408 0
350 408 0
408 408 0
454 408 0
512 408 0
60 407 0
277 407 0
295 407 0
302 407 0
451 407 0
0 406 0
222 406 0
225 406 0
228 406 0
231 406 0
236 406 0
240 406 0
247 406 0
252 406 0
255 406 0
298 406 0
306 406 0
311 406 0
315 406 0
341 406 0
412 406 0
421 406 0
448 406 0
465 406 0
479 406 0
498 406 0
57 405 0
155 405 0
214 405 0
219 405 0
233 405 0
238 405 0
244 405 0
262 405 0
269 405 0
308 405 0
322 405 0
331 405 0
337 405 0
347 405 0
406 405 0
409 405 0
416 405 0
425 405 0
442 405 0
462 405 0
469 405 0
476 405 0
512 405 0
226 404 0
230 404 0
242 404 0
248 404 0
251 404 0
257 404 0
277 404 0
304 404 0
317 404 0
335 404 0
354 404 0
402 404 0
433 404 0
437 404 0
489 404 0
63 403 0
181 403 0
189 403 0
260 403 0
265 403 0
283 403 0
286 403 0
290 403 0
342 403 0
350 403 0
363 403 0
399 403 0
422 403 0
430 403 0
445 403 0
450 403 0
454 403 0
458 403 0
493 403 0
157 402 0
185 402 0
224 402 0
227 402 0
231 402 0
279 402 0
293 402 0
300 402 0
310 402 0
313 402 0
337 402 0
345 402 0
360 402 0
366 402 0
405 402 0
408 402 0
440 402 0
512 402 0
221 401 0
269 401 0
276 401 0
297 401 0
303 401 0
339 401 0
348 401 0
352 401 0
355 401 0
372 401 0
375 401 0
426 401 0
437 401 0
491 401 0
161 400 0
273 400 0
284 400 0
289 400 0
357 400 0
0 399 0
207 399 0
211 399 0
249 399 0
256 399 0
260 399 0
279 399 0
292 399 0
301 399 0
312 399 0
315 399 0
360 399 0
363 399 0
423 399 0
432 399 0
456 399 0
460 399 0
495 399 0
499 399 0
164 398 0
239 398 0
243 398 0
246 398 0
265 398 0
282 398 0
295 398 0
298 398 0
420 398 0
429 398 0
440 398 0
463 398 0
490 398 0
168 397 0
231 397 0
236 397 0
252 397 0
268 397 0
277 397 0
339 397 0
346 397 0
366 397 0
417 397 0
425 397 0
434 397 0
466 397 0
471 397 0
485 397 0
501 397 0
508 397 0
511 397 0
227 396 0
238 396 0
242 396 0
245 396 0
249 396 0
[...]
CELL_DATA 2692
COLOR_SCALARS lut 1
0.0366344
0.0390515
0.0407711
0.0409584
0.0398808
0.0379917
0.0364039
0.0357685
0.0360799
0.0372864
0.0389051
0.0342791
0.0329746
0.032408
0.0325773
0.0336397
0.0364829
0.0382966
0.0400289
0.0420156
0.0418635
0.0428484
0.0439215
0.04762
0.0520592
0.0543183
0.0530794
0.0490695
0.0392751
0.0355945
0.033534
0.0328941
0.0329096
0.0334211
0.0340337
0.0344096
0.0345232
0.0339174
0.0327031
0.0319038
0.0318799
0.0324158
0.0333947
0.0353919
0.0395693
0.0436482
0.049653
0.0618213
0.0898276
0.136171
0.184326
0.228342
0.27764
0.319167
0.30374
0.296576
0.257864
0.224483
0.174853
0.144445
0.114405
0.0913098
0.0762077
0.06839
0.0640991
0.0760533
0.0938094
0.116002
0.144927
0.177133
0.213129
0.259284
0.323547
0.436347
0.389691
0.27812
0.199817
0.144464
0.107916
0.0870447
0.081226
0.086739
0.101713
0.122263
0.159996
0.181137
0.16401
0.131418
0.10179
0.0805482
0.0610927
0.0383681
0.03758
0.0351809
0.0392308
0.0437656
0.0457756
0.0463388
0.0354652
0.0373416
0.0374773
0.0389657
0.03671
0.0384556
0.045836
0.0445272
0.0488836
0.035904
0.0360182
0.072964
0.0411004
0.0395773
0.038435
0.0420438
0.0559219
0.0371439
0.0373836
0.0719518
0.0387237
0.0394651
0.0364803
0.0377626
0.038805
0.0779315
0.040095
0.0395274
0.0395787
0.0361112
0.0400866
0.0454902
0.0560314
0.0584936
0.0510295
0.0460835
0.0393096
0.0391964
0.055713
0.0633831
0.0399942
0.0416128
0.0393645
0.0358838
0.0385525
0.0388397
0.0426603
0.045634
0.0438996
0.0403076
0.0397594
0.0402585
0.0398371
0.0390984
0.0385027
0.0398924
0.0415875
0.0437474
0.0463804
0.049673
0.0439112
0.0401581
0.0387588
0.0365405
0.0386759
0.0397235
0.0406381
0.0418145
0.0451091
0.0457002
0.0478764
0.0410994
0.0412566
0.0397224
0.0905341
0.11922
0.0424199
0.0406736
0.0385741
0.0380182
0.0388983
0.0614376
0.0424488
0.0974058
0.0406889
0.0460471
0.0409055
0.0385516
0.0379206
0.0377928
0.0382524
0.0416884
0.0462029
0.0432651
0.0438894
0.0481941
0.0447234
0.0410049
0.0403672
0.0420651
0.0430134
0.0503808
0.105015
0.102619
0.0415323
0.0403721
0.0410442
0.047182
0.0652674
0.0459862
0.0403348
0.047157
0.0438782
0.0417016
0.0406785
0.043209
0.0439135
0.0466566
0.0497827
0.122441
0.0458321
0.0420048
0.0411259
0.0424555
0.0478829
0.0478723
0.0493511
0.0541884
0.0437903
0.0426964
0.0450515
0.0489661
0.12045
0.0397705
0.0468578
0.0448442
0.0432589
0.0432888
0.0440609
0.0481162
0.0471048
0.0478417
0.0489775
0.0506905
0.052211
0.0548611
0.0689855
0.0610787
0.0519125
0.0486364
0.0506956
0.0439787
0.044076
0.0607914
0.054634
0.0603815
0.0622131
0.134394
0.044759
0.04378
0.0436459
0.0498746
0.0496129
0.0582764
0.0518787
0.187506
0.0392525
0.0459422
0.0461405
0.0464915
0.0497018
0.0666986
0.0723668
0.0540493
0.0509453
0.0558704
0.0577478
0.0635571
0.083371
0.159281
0.0478759
0.0489934
0.0518262
0.0662266
0.0511336
0.06926
0.0704283
0.0698475
0.069213
0.0439966
0.0450274
0.0447932
0.0579183
0.0558188
0.0954632
0.0783627
0.0546094
0.069835
0.0715005
0.156718
0.183374
0.0525508
0.062253
0.0770829
0.0388866
0.0461587
0.0473047
0.0474773
0.0475286
0.0473058
0.0465742
0.0461014
0.0580016
0.0599939
0.0777701
0.17398
0.0466593
0.054934
0.0757347
0.0475642
0.062217
0.0532868
0.0523067
0.247859
0.0394247
0.046207
0.0872965
0.0559365
0.0485312
0.0473397
0.0623306
0.0679816
0.0523885
0.0831954
0.0475775
0.0492318
0.0517639
0.0533962
0.0552775
0.0566263
0.0577442
0.0582246
0.0575824
0.0562155
0.0539848
0.0544525
0.0574303
0.0592752
0.0532005
0.0399602
0.0476083
0.0567658
0.235139
0.0474127
0.0500769
0.0515584
0.0633233
0.0540617
0.0511305
0.063613
0.0901197
0.192889
0.0492879
0.0471893
0.0516943
0.0406276
0.0582528
0.0852486
0.0700558
0.0547852
0.0510919
0.0615752
0.0510688
0.0670171
0.0520602
0.192857
0.292847
0.0562382
0.0553426
0.0520537
0.0482724
0.0613496
0.0702741
0.0916042
0.0425142
0.0519352
0.0459305
0.0464982
0.0485077
0.049757
0.0509637
0.0489696
0.0476239
0.0468356
0.0502457
0.0757321
0.249548
0.0516376
0.0506942
0.0609374
0.0550682
0.0520132
0.0499161
0.048687
0.0487257
0.0502286
0.0545463
0.047827
0.0549371
0.0463723
0.0513137
0.0778252
0.0527155
0.053383
0.0495816
0.0694808
0.0918824
0.0461537
0.0544469
0.0559258
0.057293
0.0506674
0.0512118
0.050127
0.0480579
0.055876
0.0478251
0.0480999
0.0520755
0.180388
0.0548662
0.0469404
0.0475671
0.0485044
0.0499153
0.051201
0.0491089
0.0477535
0.0465193
0.0457266
0.069123
0.0489193
0.0624379
0.0728983
0.0494134
0.050391
0.0585164
0.0475021
0.0488808
0.0555587
0.0486417
0.0681289
0.0625119
0.0555762
0.0513384
0.0522115
0.0464679
0.0642365
0.0466174
0.0936837
0.0596804
0.0525398
0.0492285
0.048349
0.0478135
0.0648595
0.177253
0.0594356
0.0496947
0.0470476
0.0464756
0.287822
0.0569436
0.0897836
0.0989341
0.0556384
0.0533432
0.0540586
0.0478942
0.0487175
0.0597832
0.193819
0.19696
0.0535472
0.0536964
0.0491954
0.0481444
0.0486138
0.0574253
0.0507335
0.0491808
0.046829
0.0557802
0.0567273
0.0572396
0.0570921
0.0558508
0.0545884
0.0517664
0.0523404
0.061483
0.0662717
0.0589551
0.0498561
0.0525565
0.069084
0.0483311
0.0538225
0.0869742
0.0909586
0.0691602
0.0494581
0.0638395
0.0635195
0.0542223
0.0518082
0.0646972
0.158656
0.0723464
0.0735268
0.0761404
0.0732206
0.0692502
0.262661
0.0738293
0.077566
0.0553385
0.0578414
0.0522742
0.0597527
0.0879331
0.0791522
0.0844717
0.0825316
0.0772711
0.0731879
0.0704049
0.0687576
0.0690935
0.0700385
0.0709966
0.0711454
0.0700331
0.0676556
0.0635025
0.0594085
0.055153
0.0514043
0.0481897
0.0475757
0.0489594
0.0523563
0.0553175
0.0558284
0.0676141
0.0504066
0.0533979
0.0545138
0.0603368
0.0576038
0.0830566
0.0518271
0.0715973
0.150754
0.0845023
0.0481591
0.0534574
0.0622367
0.0592204
0.06407
0.0810605
0.118525
0.0600421
0.0559415
0.0595093
0.0686086
0.0906724
0.0883793
0.0975167
0.0716525
0.0765473
0.0527957
0.0645624
0.0487166
0.0513215
0.094648
0.0670159
0.0508029
0.055905
0.0636253
0.0739179
0.0827141
0.0790961
0.0887358
0.0753256
0.0575692
0.0504651
0.0514985
0.0541657
0.0613431
0.0704677
0.0829635
0.0717267
0.234736
0.0982932
0.0666403
0.0515517
0.0731696
0.0758381
0.0582683
0.0617722
0.0717213
0.0820107
0.0930739
0.061567
0.0694234
0.0836542
0.0807649
0.0823071
0.0585702
0.0786194
0.0780623
0.0667838
0.0621476
0.0708688
0.080609
0.098431
0.0834919
0.147594
0.0881488
0.0620824
0.0655303
0.0857866
0.0601041
0.082663
0.0711965
0.0719383
0.0778314
0.0772226
0.0621916
0.115794
0.0611246
0.0947002
0.0711833
0.0925332
0.0728353
0.0670754
0.078529
0.076948
0.0591222
0.0880737
0.0712831
0.090276
0.0541751
0.0610539
0.077165
0.0965687
0.0750962
0.0985124
0.0712457
0.136693
0.0660216
0.111006
0.085606
0.094015
0.0697623
0.0552374
0.0523859
0.0683946
0.211573
0.0605274
0.076657
0.0924911
0.0865359
0.102535
0.0604979
0.108855
0.0930333
0.0711942
0.0524331
0.0690381
0.102231
0.116995
0.066056
0.0908506
0.100109
0.0764166
0.100855
0.0581682
0.0584475
0.0629278
0.0965714
0.140583
0.134952
0.100012
0.12196
0.0723754
0.0509393
0.0500011
0.0761936
0.0896195
0.102462
0.0633214
0.0738588
0.0683355
0.0828198
0.0664092
0.0744802
0.0536537
0.0596294
0.0635667
0.0628027
0.0490906
0.0584054
0.0557294
0.0663998
0.163041
0.0642626
0.0552531
0.0598049
0.0629042
0.0501012
0.0477987
0.156829
0.0988676
0.0551336
0.0587955
0.059729
0.0614775
0.0617265
0.0912193
0.102422
0.0520033
0.0516957
0.0597638
0.0534309
0.0532664
0.0493713
0.0514748
0.0535768
0.0520142
0.0480818
0.0578363
0.0585857
0.0573614
0.0590948
0.0460842
0.0535219
0.0560715
0.0571541
0.0587911
0.0964811
0.0611942
0.0464696
0.0780754
0.0833389
0.0955691
0.118322
0.122176
0.122462
0.0813224
0.092438
0.0710564
0.0465782
0.0516958
0.0467485
0.0529508
0.0713418
0.103969
0.098396
0.0434538
0.0500664
0.0615139
0.044454
0.049354
0.0525525
0.0507899
0.0658937
0.107812
0.107558
0.185652
0.0495544
0.0534238
0.0534362
0.0440211
0.0511676
0.048627
0.0608578
0.0926793
0.097047
0.112745
0.0604677
0.0414471
0.042409
0.0446211
0.0451915
0.0503294
0.0536902
0.0563171
0.0759926
0.108039
0.104419
0.101289
0.0975221
0.097186
0.0429758
0.0411701
0.0402331
0.0404494
0.0457627
0.0514395
0.067055
0.062176
0.055944
0.0477619
0.0432547
0.0427938
0.0471049
0.0483494
0.045718
0.0607326
0.0659396
0.067868
0.0533226
0.0474821
0.0538591
0.0582383
0.0665611
0.0659317
0.0430763
0.0442068
0.0476656
0.0454657
0.0541461
0.0557538
0.0897139
0.0881272
0.0939643
0.0591509
0.0493426
0.0504717
0.0946998
0.0785811
0.0930647
0.058167
0.0421341
0.0431959
0.0433679
0.0445934
0.0463494
0.0812539
0.0767386
0.0607152
0.090574
0.0570742
0.0474517
0.0434726
0.0748578
0.187773
0.0432394
0.0407863
0.0392956
0.0384285
0.0380201
0.0383474
0.0402069
0.0427221
0.0444218
0.0448601
0.0426578
0.0422173
0.0426089
0.041321
0.0763263
0.0822007
0.0747949
0.0764648
0.0831707
0.0693794
0.0962913
0.101018
0.0580831
0.0468701
0.0380002
0.0380169
0.0390238
0.0467582
0.0499624
0.0426896
0.0450198
0.0439927
0.0413225
0.0417784
0.0735232
0.072562
0.0751691
0.0789458
0.0779122
0.0695926
0.0758715
0.0791426
0.054234
0.0398866
0.0384137
0.0385753
0.0403151
0.0415333
0.0438323
0.051309
0.0435026
0.0433485
0.0418248
0.0429419
0.0777394
0.0754462
0.0757245
0.0678023
0.097369
0.123894
0.128299
0.0441078
0.0455252
0.0506807
0.050001
0.0479375
0.0399594
0.0409979
0.0477916
0.0848882
0.0703457
0.0707608
0.0673929
0.0625374
0.0602709
0.061001
0.0615474
0.102035
0.123422
0.0409799
0.0393662
0.0382696
0.0495286
0.0458746
0.0446243
0.0437439
0.0433961
0.0407132
0.0396995
0.0445447
0.0506466
0.0717006
0.0683426
0.067277
0.0481339
0.0435604
0.0454282
0.0481776
0.0449496
0.0450653
0.0399324
0.0396415
0.040343
0.0412365
0.0624814
0.0722338
0.0643727
0.0647926
0.0576449
0.098148
0.046657
0.0483372
0.0468512
0.0416612
0.164926
0.0762877
0.0626057
0.0422467
0.0435843
0.0433701
0.0479196
0.0455176
0.0460279
0.0446667
0.0441657
0.0431807
0.0458549
0.0610332
0.0597838
0.0548993
0.055818
0.0516744
0.0511022
0.0970134
0.0394386
0.040474
0.0415901
0.0435882
0.0476223
0.0451848
0.0457582
0.060759
0.058377
0.0587342
0.0557916
0.0525444
0.0956208
0.0391866
0.0392754
0.044439
0.0444149
0.0474032
0.0393487
0.0387414
0.0493994
0.0611713
0.0584299
0.057527
0.0555929
0.0567759
0.0548993
0.0477731
0.0443387
0.041293
0.0404881
0.0399203
0.0409681
0.0421781
0.0440844
0.0442754
0.0438703
0.0457925
0.0473573
0.04638
0.0450162
0.0447686
0.0441285
0.0428111
0.0388617
0.0395551
0.0591817
0.0573244
0.0563885
0.0553558
0.0456453
0.0423972
0.0402675
0.039777
0.0456849
0.0386539
0.0389217
0.0410078
0.0554638
0.0552391
0.0551599
0.0551162
0.04468
0.0498055
0.0418631
0.0403508
0.0410994
0.042583
0.0447337
0.0476331
0.0447833
0.0448742
0.0421811
0.0407252
0.0389693
0.0386544
0.0387798
0.0392468
0.0402629
0.0439706
0.0472076
0.0679475
0.0634063
0.0604543
0.0574199
0.057853
0.0577756
0.0574076
0.0568076
0.0551622
0.0542975
0.0545438
0.0542592
0.037754
0.132307
0.134802
0.0967748
0.061823
0.0407679
0.0420876
0.0445672
0.046884
0.0447742
0.0456189
0.042601
0.0411665
0.0397659
0.0418817
0.0714955
0.0666668
0.0622881
0.0581981
0.0523648
0.0441508
0.0560563
0.0488064
0.0444759
0.0420344
0.0416154
0.0468696
0.0464947
0.0472048
0.0485525
0.0411985
0.0401761
0.0394305
0.0388828
0.0385719
0.0387342
0.0390547
0.0570518
0.0600554
0.0586489
0.0505503
0.0808073
0.0454335
0.0458885
0.0494651
0.0432688
0.0434362
0.0427904
0.0414379
0.0402693
0.0400194
0.04118
0.0663551
0.0640826
0.0629224
0.0609916
0.0477099
0.0459064
0.0449667
0.0371454
0.0472952
0.0479739
0.0436892
0.0399813
0.0387293
0.0388332
0.03931
0.040483
0.0434287
0.0464175
0.0716431
0.0651859
0.0647414
0.0639588
0.0564255
0.0443437
0.0429027
0.0391663
0.0466147
0.0483541
0.0499972
0.049998
0.0461191
0.042205
0.0403691
0.0390419
0.0387705
0.0385248
0.0510277
0.0691277
0.0671381
0.0676335
0.0683111
0.0574398
0.0572745
0.0567205
0.104804
0.129189
0.102005
0.0437847
0.0459
0.0463809
0.0423556
0.0439114
0.0418742
0.0408283
0.0390111
0.0731911
0.0707678
0.0706006
0.0385308
0.0835513
0.0554897
0.0443477
0.0458449
0.0472628
0.0515988
0.048714
0.0445624
0.0399916
0.0385406
0.0384665
0.0884747
0.0743331
0.0572264
0.0513874
0.047835
0.111821
0.0711568
0.094961
0.087336
0.0742108
0.0662157
0.0615617
0.053412
0.0498555
0.0450406
0.0465249
0.0456337
0.0506601
0.0410552
0.0409062
0.0419548
0.0393299
0.0382526
0.0386949
0.0392068
0.0485807
0.0620613
0.0830276
0.0624162
0.0516912
0.0463289
0.0805124
0.0677901
0.0700552
0.087407
0.0487285
0.0472458
0.0485325
0.0408784
0.0383485
0.0423777
0.08324
0.0671807
0.0674949
0.0674464
0.0587703
0.0869172
0.120548
0.0828714
0.0731809
0.0909702
0.0460904
0.0450044
0.044598
0.0515498
0.0505579
0.0483948
0.0457093
0.0423581
0.0399233
0.0389103
0.0381111
0.0388033
0.0398199
0.0472735
0.0528741
0.0701817
0.0676348
0.0556004
0.052112
0.0484119
0.0630111
0.0460325
0.0455309
0.0452248
0.0500364
0.0407829
0.0408851
0.04073
0.0402764
0.0396342
0.0378861
0.0379566
0.0382782
0.0734622
0.0472419
0.0661836
0.0638013
0.0864712
0.0480512
0.0445722
0.0465621
0.042331
0.0398482
0.0403059
0.0379296
0.038732
0.0412023
0.0429721
0.0511005
0.060444
0.0713122
0.0607618
0.0591836
0.059584
0.0724719
0.0428575
0.0473815
0.040579
0.0391201
0.0405379
0.0400178
0.0392965
0.0378605
0.0381473
0.0394525
0.045817
0.0757654
0.0570406
0.0450971
0.0438448
0.0481934
0.0484297
0.0428916
0.0383451
0.0394151
0.0401946
0.0388307
0.0380003
0.0384977
0.0409506
0.0495467
0.0680224
0.0577612
0.0908391
0.0419117
0.0437627
0.0444714
0.0385543
0.040289
0.0378663
0.042816
0.0544454
0.0805638
0.0578415
0.104904
0.0615687
0.0542637
0.0540211
0.0783085
0.0433616
0.0411254
0.041393
0.0454419
0.0466476
0.0383836
0.0379152
0.0399697
0.0403614
0.0393896
0.0383457
0.0405814
0.0462299
0.0610835
0.0904622
0.052416
0.0587285
0.0413647
0.0414707
0.045018
0.0388365
0.0377771
0.0392361
0.0400447
0.0397516
0.0385016
0.038042
0.0416916
0.0508943
0.0727543
0.0539062
0.0926386
0.0428037
0.04454
0.0399732
0.0398735
0.0388372
0.0377812
0.039127
0.0407462
0.0450017
0.0579016
0.0754863
0.0702725
0.057995
0.0504778
0.0401862
0.0399396
0.0408454
0.0388658
0.0378949
0.0373793
0.0392044
0.0390346
0.0479279
0.0499149
0.064865
0.0713587
0.0435125
0.0403972
0.037409
0.0383868
0.0381019
0.0377062
0.0388571
0.0435944
0.053276
0.105779
0.0521311
0.0499982
0.0613143
0.0915892
0.0457472
0.0375801
0.0385966
0.0385693
0.0373719
0.0676207
0.0603558
0.054959
0.0524965
0.0561249
0.0591303
0.0505032
0.0395643
0.0407037
0.0418604
0.0412272
0.0403444
0.0392638
0.0379333
0.0372907
0.0450466
0.0627025
0.0503061
0.0898653
0.0392394
0.0379416
0.0372698
0.0368309
0.0372261
0.0388697
0.0420191
0.0521801
0.0628112
0.118515
0.095906
0.0831321
0.079924
0.0661232
0.0492921
0.0405433
0.0398128
0.0396883
0.0411084
0.0407699
0.0397186
0.0371331
0.0403061
0.0409793
0.0467608
0.0770232
0.0484032
0.0620047
0.0712182
0.0773446
0.0608624
0.0394599
0.0389928
0.0385067
0.0377465
0.0371156
0.0365127
0.0372714
0.0393357
0.0398379
0.0428403
0.0580826
0.0477013
0.0408266
0.0391542
0.0388459
0.0402841
0.039859
0.0367851
0.0361233
0.0361222
0.036352
0.0365942
0.0364813
0.0363994
0.036774
0.0381545
0.0662288
0.0619909
0.0913094
0.0465745
0.0430486
0.040117
0.0389977
0.0363456
0.0374893
0.0387489
0.0393009
0.040346
0.0486356
0.0535318
0.0770849
0.1288
0.118474
0.097552
0.0733439
0.0643688
0.0561424
0.0596709
0.0768382
0.0730356
0.0395384
0.0386612
0.038913
0.0394788
0.0396522
0.0394486
0.0385769
0.0366827
0.0359843
0.0361074
0.0366799
0.0393604
0.0471894
0.0656446
0.0399801
0.0391211
0.0389481
0.0394659
0.0358403
0.0358405
0.0358246
0.0369634
0.0379345
0.0387747
0.0454672
0.0591578
0.0582229
0.0475538
0.081325
0.0408605
0.0382632
0.0391032
0.0393856
0.039248
0.035924
0.0356549
0.0356966
0.0373057
0.0410608
0.0670774
0.0836082
0.0465297
0.0655826
0.0894142
0.0404287
0.0393526
0.03842
0.0362452
0.0354916
0.0354468
0.0354386
0.0354693
0.0381264
0.0421199
0.0532889
0.113895
0.0623117
0.0478424
0.0798122
0.0874959
0.0961207
0.0515993
0.040052
0.0387602
0.0353096
0.0396126
0.0478132
0.125932
0.0715676
0.0495757
0.082449
0.0864028
0.0512741
0.0410841
0.039653
0.0381268
0.0381456
0.0384884
0.037054
0.035778
0.0353871
0.0357568
0.0361917
0.0389082
0.0411042
0.0440182
0.060706
0.0745881
0.149945
0.0557623
0.0530948
0.0420425
0.0406756
0.0384775
0.0380523
0.0390692
0.0351598
0.039403
0.0401551
0.0529183
0.0474497
0.0710324
0.0948318
0.0559403
0.0489449
0.0487752
0.0399694
0.0397799
0.0389334
0.0363537
0.0349691
0.035128
0.0360403
0.0366636
0.0389741
0.0420352
0.0464112
0.0701391
0.0464276
0.064874
0.085945
0.0429135
0.0411243
0.0404459
0.035621
0.0350101
0.0375322
0.0395401
0.0703156
0.114825
0.130449
0.0862887
0.0492432
0.0576876
0.0460085
0.0400127
0.0408186
0.0411827
0.038799
0.0377048
0.0352033
0.0350035
0.0382518
0.0410446
0.0478412
0.0923525
0.0870732
0.0440559
0.0387613
0.0397907
0.0420123
0.040175
0.0370588
0.0361721
0.0364959
0.0375588
0.0393201
0.0614469
0.102116
0.0677745
0.0489196
0.046922
0.0389323
0.0410299
0.0390823
0.0360507
0.0390363
0.0400936
0.0448828
0.0539322
0.0748613
0.0659594
0.0582947
0.0525269
0.047453
0.0500039
0.0393692
0.0398321
0.0407802
0.0429722
0.0440956
0.0364792
0.0354869
0.0386145
0.0409468
0.105759
0.0487395
0.0353552
0.0360223
0.0415665
0.0492287
0.173158
0.0841416
0.0827853
0.036618
0.0357021
0.0355657
0.038364
0.0647035
0.134118
0.048648
0.0574332
0.0651265
0.045878
0.0456814
0.0420142
0.0412641
0.0406244
0.044779
0.0363848
0.0378582
0.0433234
0.0505022
0.043746
0.0408208
0.0486453
0.0486628
0.0427722
0.0430971
0.0456748
0.0939427
0.0501992
0.0845324
0.0707395
0.0521183
0.0488523
0.0466748
0.0453285
0.0410864
0.0444819
0.0532259
0.0535151
0.0421817
0.0365667
0.037631
0.078857
0.0553656
0.0499335
0.058997
0.0783348
0.0622161
0.0577166
0.0459391
0.0433315
0.0420264
0.0413921
0.0422956
0.0436895
0.0485623
0.0513502
0.0544483
0.0509622
0.0362074
0.0370594
0.044291
0.0458225
0.0457251
0.0424783
0.0481143
0.0425011
0.0401375
0.0380722
0.0408001
0.0444595
0.0509005
0.0870416
0.0673316
0.0454649
0.0424897
0.0480697
0.0396034
0.0401184
0.0736167
0.0859164
0.0881629
0.167064
0.118936
0.0514441
0.0548781
0.0604772
0.0746928
0.0440831
0.043194
0.0370384
0.0421139
0.0437587
0.0634407
0.0462548
0.0473313
0.0445289
0.0447283
0.0396281
0.0372072
0.0571056
0.0538794
0.0927166
0.0473123
0.0425409
0.0390268
0.0386979
0.0933805
0.0515147
0.0535872
0.0814816
0.0467069
0.0454998
0.0374523
0.0417467
0.0519994
0.0645374
0.0795674
0.104274
0.0511446
0.059897
0.0486099
0.0462237
0.0479441
0.0391601
0.0407982
0.0992162
0.105278
0.0508222
0.0491167
0.0428335
0.0398473
0.037989
0.0422207
0.0435989
0.0484802
0.05535
0.0610037
0.0852003
0.150595
0.0891526
0.0744937
0.0739872
0.0492507
0.0491987
0.0387385
0.0391131
0.0410097
0.0454325
0.0744817
0.0754325
0.0507938
0.0519802
0.055281
0.0649276
0.0794702
0.0864277
0.0799109
0.0512653
0.0554915
0.0407658
0.0424734
0.0460961
0.0510611
0.0901736
0.0710322
0.0492493
0.0514219
0.047207
0.0428241
0.0394509
0.0452052
0.10773
0.0660999
0.0542337
0.050031
0.0528415
0.0590357
0.0399043
0.0408883
0.0498429
0.0557589
0.0640705
0.0848173
0.0884707
0.0811078
0.0597178
0.0497999
0.0543456
0.0558118
0.0588184
0.0461036
0.0452322
0.0448385
0.0840001
0.109948
0.0736796
0.056808
0.0685968
0.0704437
0.0747195
0.0560088
0.0411401
0.0416751
0.0454949
0.0547738
0.0631634
0.132626
0.0560504
0.0517464
0.0477419
0.0487053
0.052511
0.0894898
0.0660734
0.0460278
0.0494846
0.0773247
0.0769806
0.103109
0.083168
0.0647008
0.0767387
0.0572346
0.0527821
0.0630108
0.0445709
0.0445701
0.0450039
0.0468171
0.0809568
0.0676458
0.0559896
0.0594674
0.102285
0.0492237
0.047716
0.0869387
0.0665835
0.0521242
0.0512583
0.0638323
0.062033
0.0484203
0.0469991
0.0453523
0.0765511
0.0722309
0.0999155
0.0619361
0.0537286
0.0844459
0.0458168
0.0471591
0.0579857
0.100807
0.119099
0.0569259
0.048751
0.0675682
0.0726045
0.0451681
0.0749491
0.0716026
0.0526914
0.0866736
0.0536157
0.0526607
0.0469268
0.0749019
0.0999101
0.0694197
0.053956
0.0684667
0.0809086
0.0689814
0.057766
0.0788949
0.0678754
0.0625625
0.0855515
0.051556
0.0559431
0.0463156
0.0746384
0.05379
0.0656167
0.0607205
0.0745422
0.0677903
0.0672256
0.0592845
0.0860605
0.0740826
0.055238
0.0490147
0.0493782
0.0576244
0.0774003
0.074659
0.0580862
0.0615784
0.0938608
0.0751085
0.0632999
0.0625496