# vtk DataFile Version 1.0
Unstructured Grid Example
ASCII

DATASET UNSTRUCTURED_GRID
POINTS 7455 float
1 513 0
4 513 0
7 513 0
10 513 0
13 513 0
17 513 0
21 513 0
25 513 0
28 513 0
32 513 0
38 513 0
47 513 0
50 513 0
53 513 0
56 513 0
60 513 0
67 513 0
71 513 0
75 513 0
94 513 0
97 513 0
101 513 0
104 513 0
109 513 0
113 513 0
117 513 0
120 513 0
124 513 0
132 513 0
136 513 0
140 513 0
143 513 0
147 513 0
151 513 0
155 513 0
158 513 0
162 513 0
165 513 0
169 513 0
173 513 0
177 513 0
180 513 0
183 513 0
187 513 0
192 513 0
195 513 0
198 513 0
202 513 0
208 513 0
216 513 0
224 513 0
231 513 0
239 513 0
250 513 0
260 513 0
262 513 0
271 513 0
278 513 0
288 513 0
294 513 0
300 513 0
305 513 0
309 513 0
312 513 0
316 513 0
325 513 0
330 513 0
335 513 0
341 513 0
347 513 0
353 513 0
360 513 0
369 513 0
386 513 0
407 513 0
423 513 0
434 513 0
442 513 0
448 513 0
453 513 0
457 513 0
461 513 0
465 513 0
469 513 0
476 513 0
482 513 0
492 513 0
498 513 0
503 513 0
507 513 0
512 513 0
15 512 0
19 512 0
34 512 0
42 512 0
63 512 0
73 512 0
77 512 0
80 512 0
87 512 0
128 512 0
138 512 0
160 512 0
171 512 0
0 511 0
22 511 0
29 511 0
39 511 0
44 511 0
54 511 0
61 511 0
70 511 0
84 511 0
90 511 0
106 511 0
133 511 0
144 511 0
150 511 0
154 511 0
164 511 0
176 511 0
181 511 0
184 511 0
188 511 0
205 511 0
320 511 0
8 510 0
14 510 0
17 510 0
20 510 0
27 510 0
32 510 0
41 510 0
49 510 0
58 510 0
64 510 0
74 510 0
78 510 0
95 510 0
109 510 0
116 510 0
122 510 0
125 510 0
136 510 0
142 510 0
147 510 0
156 510 0
161 510 0
169 510 0
173 510 0
178 510 0
186 510 0
191 510 0
194 510 0
311 510 0
459 510 0
512 510 0
1 509 0
4 509 0
11 509 0
25 509 0
30 509 0
36 509 0
45 509 0
51 509 0
56 509 0
62 509 0
66 509 0
69 509 0
76 509 0
87 509 0
100 509 0
112 509 0
139 509 0
152 509 0
159 509 0
167 509 0
180 509 0
183 509 0
202 509 0
306 509 0
317 509 0
330 509 0
452 509 0
464 509 0
473 509 0
503 509 0
23 508 0
34 508 0
38 508 0
42 508 0
48 508 0
73 508 0
82 508 0
93 508 0
97 508 0
107 508 0
119 508 0
127 508 0
131 508 0
134 508 0
149 508 0
157 508 0
163 508 0
172 508 0
196 508 0
199 508 0
213 508 0
326 508 0
336 508 0
0 507 0
6 507 0
15 507 0
21 507 0
26 507 0
32 507 0
40 507 0
46 507 0
54 507 0
59 507 0
65 507 0
66 507 0
70 507 0
75 507 0
79 507 0
90 507 0
104 507 0
114 507 0
122 507 0
137 507 0
142 507 0
145 507 0
155 507 0
160 507 0
165 507 0
168 507 0
174 507 0
179 507 0
182 507 0
185 507 0
188 507 0
191 507 0
228 507 0
281 507 0
290 507 0
300 507 0
445 507 0
507 507 0
11 506 0
18 506 0
24 506 0
28 506 0
36 506 0
43 506 0
51 506 0
63 506 0
67 506 0
72 506 0
77 506 0
84 506 0
87 506 0
95 506 0
129 506 0
150 506 0
153 506 0
171 506 0
176 506 0
220 506 0
314 506 0
342 506 0
433 506 0
457 506 0
468 506 0
499 506 0
8 505 0
22 505 0
31 505 0
39 505 0
45 505 0
58 505 0
61 505 0
69 505 0
74 505 0
92 505 0
99 505 0
107 505 0
110 505 0
134 505 0
143 505 0
159 505 0
169 505 0
195 505 0
198 505 0
201 505 0
209 505 0
308 505 0
322 505 0
450 505 0
489 505 0
512 505 0
0 504 0
3 504 0
16 504 0
25 504 0
33 504 0
47 504 0
50 504 0
53 504 0
56 504 0
64 504 0
71 504 0
80 504 0
102 504 0
123 504 0
139 504 0
146 504 0
155 504 0
162 504 0
165 504 0
178 504 0
182 504 0
205 504 0
330 504 0
353 504 0
12 503 0
19 503 0
30 503 0
37 503 0
42 503 0
67 503 0
73 503 0
77 503 0
90 503 0
95 503 0
115 503 0
119 503 0
130 503 0
149 503 0
152 503 0
174 503 0
189 503 0
193 503 0
214 503 0
250 503 0
295 503 0
302 503 0
312 503 0
316 503 0
373 503 0
481 503 0
508 503 0
8 502 0
28 502 0
34 502 0
45 502 0
51 502 0
55 502 0
59 502 0
83 502 0
87 502 0
100 502 0
107 502 0
143 502 0
160 502 0
199 502 0
271 502 0
412 502 0
0 501 0
15 501 0
22 501 0
32 501 0
36 501 0
39 501 0
47 501 0
53 501 0
62 501 0
65 501 0
80 501 0
93 501 0
112 501 0
125 501 0
132 501 0
135 501 0
138 501 0
146 501 0
155 501 0
165 501 0
172 501 0
179 501 0
185 501 0
196 501 0
209 501 0
323 501 0
422 501 0
459 501 0
465 501 0
473 501 0
512 501 0
2 500 0
6 500 0
18 500 0
29 500 0
41 500 0
44 500 0
50 500 0
57 500 0
68 500 0
75 500 0
85 500 0
96 500 0
103 500 0
117 500 0
151 500 0
168 500 0
175 500 0
182 500 0
188 500 0
205 500 0
306 500 0
328 500 0
347 500 0
11 499 0
24 499 0
35 499 0
38 499 0
60 499 0
122 499 0
143 499 0
148 499 0
160 499 0
163 499 0
191 499 0
194 499 0
199 499 0
231 499 0
313 499 0
438 499 0
450 499 0
502 499 0
0 498 0
8 498 0
16 498 0
21 498 0
48 498 0
52 498 0
55 498 0
66 498 0
77 498 0
80 498 0
83 498 0
87 498 0
90 498 0
94 498 0
107 498 0
110 498 0
127 498 0
135 498 0
140 498 0
157 498 0
166 498 0
178 498 0
214 498 0
317 498 0
337 498 0
363 498 0
386 498 0
508 498 0
4 497 0
13 497 0
27 497 0
40 497 0
45 497 0
71 497 0
99 497 0
104 497 0
150 497 0
153 497 0
172 497 0
175 497 0
181 497 0
184 497 0
187 497 0
209 497 0
261 497 0
283 497 0
295 497 0
309 497 0
494 497 0
23 496 0
30 496 0
33 496 0
61 496 0
64 496 0
74 496 0
113 496 0
117 496 0
130 496 0
137 496 0
143 496 0
146 496 0
161 496 0
193 496 0
301 496 0
456 496 0
486 496 0
0 495 0
7 495 0
11 495 0
16 495 0
37 495 0
43 495 0
47 495 0
58 495 0
68 495 0
79 495 0
83 495 0
91 495 0
94 495 0
102 495 0
107 495 0
124 495 0
133 495 0
140 495 0
156 495 0
165 495 0
168 495 0
177 495 0
196 495 0
202 495 0
241 495 0
324 495 0
330 495 0
469 495 0
19 494 0
50 494 0
54 494 0
76 494 0
99 494 0
150 494 0
153 494 0
173 494 0
180 494 0
183 494 0
188 494 0
191 494 0
199 494 0
462 494 0
477 494 0
5 493 0
9 493 0
24 493 0
29 493 0
32 493 0
40 493 0
45 493 0
61 493 0
64 493 0
72 493 0
87 493 0
120 493 0
127 493 0
138 493 0
147 493 0
160 493 0
205 493 0
211 493 0
225 493 0
344 493 0
401 493 0
2 492 0
35 492 0
48 492 0
67 492 0
79 492 0
82 492 0
90 492 0
95 492 0
108 492 0
114 492 0
134 492 0
157 492 0
166 492 0
171 492 0
195 492 0
217 492 0
308 492 0
318 492 0
335 492 0
447 492 0
501 492 0
512 492 0
42 491 0
52 491 0
56 491 0
100 491 0
130 491 0
141 491 0
144 491 0
152 491 0
162 491 0
178 491 0
188 491 0
200 491 0
327 491 0
0 490 0
4 490 0
9 490 0
12 490 0
16 490 0
19 490 0
22 490 0
25 490 0
29 490 0
32 490 0
39 490 0
46 490 0
60 490 0
73 490 0
76 490 0
85 490 0
92 490 0
104 490 0
122 490 0
138 490 0
148 490 0
159 490 0
174 490 0
191 490 0
290 490 0
303 490 0
417 490 0
429 490 0
36 489 0
70 489 0
79 489 0
82 489 0
107 489 0
111 489 0
118 489 0
127 489 0
154 489 0
170 489 0
184 489 0
197 489 0
207 489 0
268 489 0
297 489 0
313 489 0
2 488 0
14 488 0
27 488 0
51 488 0
55 488 0
64 488 0
87 488 0
90 488 0
135 488 0
141 488 0
151 488 0
5 487 0
11 487 0
19 487 0
23 487 0
30 487 0
34 487 0
40 487 0
43 487 0
46 487 0
58 487 0
61 487 0
67 487 0
72 487 0
76 487 0
84 487 0
93 487 0
96 487 0
101 487 0
144 487 0
148 487 0
162 487 0
188 487 0
192 487 0
204 487 0
362 487 0
456 487 0
0 486 0
8 486 0
79 486 0
109 486 0
113 486 0
131 486 0
138 486 0
155 486 0
158 486 0
166 486 0
172 486 0
176 486 0
196 486 0
232 486 0
318 486 0
333 486 0
469 486 0
505 486 0
3 485 0
14 485 0
17 485 0
27 485 0
37 485 0
87 485 0
90 485 0
104 485 0
118 485 0
122 485 0
127 485 0
141 485 0
182 485 0
200 485 0
207 485 0
212 485 0
222 485 0
306 485 0
327 485 0
340 485 0
495 485 0
10 484 0
20 484 0
30 484 0
42 484 0
46 484 0
49 484 0
53 484 0
56 484 0
59 484 0
63 484 0
66 484 0
69 484 0
73 484 0
81 484 0
84 484 0
95 484 0
135 484 0
144 484 0
149 484 0
161 484 0
169 484 0
190 484 0
278 484 0
485 484 0
0 483 0
5 483 0
24 483 0
35 483 0
39 483 0
100 483 0
111 483 0
152 483 0
158 483 0
186 483 0
287 483 0
294 483 0
512 483 0
8 482 0
12 482 0
15 482 0
77 482 0
88 482 0
131 482 0
137 482 0
141 482 0
155 482 0
195 482 0
203 482 0
301 482 0
29 481 0
32 481 0
37 481 0
41 481 0
46 481 0
49 481 0
62 481 0
67 481 0
71 481 0
74 481 0
80 481 0
92 481 0
105 481 0
115 481 0
120 481 0
124 481 0
147 481 0
165 481 0
208 481 0
217 481 0
248 481 0
350 481 0
0 480 0
3 480 0
19 480 0
24 480 0
57 480 0
86 480 0
97 480 0
109 480 0
127 480 0
135 480 0
144 480 0
152 480 0
158 480 0
169 480 0
176 480 0
191 480 0
198 480 0
212 480 0
310 480 0
385 480 0
443 480 0
15 479 0
43 479 0
52 479 0
65 479 0
69 479 0
78 479 0
112 479 0
130 479 0
138 479 0
141 479 0
155 479 0
321 479 0
9 478 0
22 478 0
29 478 0
39 478 0
47 478 0
55 478 0
59 478 0
72 478 0
83 478 0
93 478 0
122 478 0
125 478 0
183 478 0
195 478 0
263 478 0
297 478 0
456 478 0
3 477 0
6 477 0
12 477 0
18 477 0
25 477 0
32 477 0
35 477 0
75 477 0
86 477 0
89 477 0
102 477 0
118 477 0
132 477 0
135 477 0
143 477 0
148 477 0
151 477 0
163 477 0
208 477 0
226 477 0
290 477 0
465 477 0
63 476 0
67 476 0
80 476 0
96 476 0
115 476 0
127 476 0
155 476 0
188 476 0
202 476 0
213 476 0
333 476 0
0 475 0
15 475 0
23 475 0
30 475 0
40 475 0
43 475 0
48 475 0
51 475 0
54 475 0
70 475 0
73 475 0
77 475 0
83 475 0
92 475 0
109 475 0
121 475 0
160 475 0
174 475 0
314 475 0
512 475 0
6 474 0
10 474 0
20 474 0
58 474 0
65 474 0
106 474 0
125 474 0
129 474 0
132 474 0
135 474 0
138 474 0
141 474 0
144 474 0
148 474 0
152 474 0
169 474 0
217 474 0
305 474 0
343 474 0
3 473 0
13 473 0
27 473 0
38 473 0
45 473 0
61 473 0
68 473 0
75 473 0
86 473 0
94 473 0
97 473 0
101 473 0
112 473 0
156 473 0
198 473 0
210 473 0
8 472 0
30 472 0
34 472 0
41 472 0
80 472 0
90 472 0
109 472 0
117 472 0
120 472 0
204 472 0
222 472 0
231 472 0
239 472 0
283 472 0
433 472 0
501 472 0
0 471 0
5 471 0
17 471 0
20 471 0
24 471 0
56 471 0
59 471 0
65 471 0
83 471 0
125 471 0
128 471 0
137 471 0
141 471 0
146 471 0
160 471 0
191 471 0
292 471 0
300 471 0
324 471 0
370 471 0
447 471 0
10 470 0
13 470 0
43 470 0
46 470 0
49 470 0
53 470 0
62 470 0
68 470 0
71 470 0
74 470 0
78 470 0
105 470 0
112 470 0
115 470 0
132 470 0
151 470 0
154 470 0
273 470 0
410 470 0
485 470 0
3 469 0
26 469 0
33 469 0
37 469 0
86 469 0
91 469 0
98 469 0
135 469 0
143 469 0
148 469 0
165 469 0
184 469 0
199 469 0
209 469 0
462 469 0
472 469 0
509 469 0
6 468 0
40 468 0
58 468 0
65 468 0
76 468 0
95 468 0
103 468 0
110 468 0
118 468 0
122 468 0
126 468 0
158 468 0
177 468 0
216 468 0
317 468 0
0 467 0
9 467 0
22 467 0
29 467 0
44 467 0
50 467 0
54 467 0
62 467 0
72 467 0
81 467 0
106 467 0
138 467 0
145 467 0
154 467 0
170 467 0
204 467 0
258 467 0
306 467 0
[...]
CELL_DATA 7455
COLOR_SCALARS lut 1
0.0207306
0.0220985
0.0230715
0.0231775
0.0225677
0.0214987
0.0206002
0.0202406
0.0204168
0.0210996
0.0220156
0.0193978
0.0186596
0.018339
0.0184348
0.019036
0.0206449
0.0216712
0.0226515
0.0237758
0.0236897
0.024247
0.0248543
0.0269471
0.0294592
0.0307376
0.0300365
0.0277674
0.022225
0.0201422
0.0189762
0.0186141
0.0186228
0.0189123
0.019259
0.0194717
0.019536
0.0191932
0.018506
0.0180537
0.0180402
0.0183434
0.0188974
0.0200275
0.0223915
0.0246996
0.0280976
0.0349834
0.0508316
0.0770565
0.104306
0.129214
0.157111
0.18061
0.17188
0.167826
0.14592
0.12703
0.0989457
0.0817386
0.0647391
0.0516703
0.0431243
0.0387005
0.0362723
0.043037
0.0530848
0.0656431
0.0820114
0.100236
0.120605
0.146724
0.183089
0.24692
0.220518
0.157383
0.113073
0.0817489
0.0610675
0.0492568
0.0459641
0.0490838
0.0575571
0.0691862
0.0905384
0.102502
0.0928097
0.0743666
0.0576007
0.0455805
0.0345711
0.0226399
0.0215662
0.0217117
0.0212657
0.0199081
0.0221999
0.0234119
0.0247661
0.0259035
0.0262222
0.0202019
0.020069
0.0187985
0.0211308
0.0214376
0.0212076
0.0220499
0.0207734
0.0189845
0.0198296
0.0217612
0.0259377
0.025197
0.0276622
0.0236005
0.0198914
0.0200632
0.0203173
0.020382
0.0192828
0.0199914
0.0207713
0.0222293
0.0451955
0.0412888
0.0251586
0.0241993
0.0232579
0.022396
0.0215174
0.0217838
0.0217495
0.0197072
0.0196776
0.0206856
0.0226019
0.0237917
0.0251561
0.0307259
0.0355097
0.0339532
0.031645
0.0227225
0.0207448
0.0205539
0.021019
0.0211546
0.0202016
0.0198667
0.0201661
0.0223448
0.024822
0.0270746
0.0454531
0.054925
0.040716
0.0225707
0.0243535
0.0256063
0.0220147
0.0219129
0.0223325
0.0208661
0.0197363
0.0197709
0.0206435
0.0213691
0.021959
0.0231471
0.0257965
0.0273574
0.0346507
0.0222005
0.0214276
0.0217168
0.021068
0.0212869
0.0221553
0.040553
0.0572585
0.0440998
0.0620685
0.0625555
0.0671484
0.0951743
0.0693532
0.0226889
0.0223677
0.0223968
0.0217687
0.0204346
0.0226842
0.0251374
0.0257419
0.0268259
0.031707
0.0391843
0.0331003
0.0288765
0.0260777
0.0219223
0.0222445
0.0221804
0.0211286
0.0315268
0.0358672
0.0773243
0.0558745
0.0806599
0.0226319
0.0261627
0.0254574
0.0235478
0.0227405
0.0225033
0.0222756
0.0210931
0.0203059
0.0208731
0.0218161
0.0219786
0.0225712
0.0231215
0.0241406
0.0258233
0.0309046
0.0394381
0.0395854
0.0248419
0.0228093
0.022499
0.0227814
0.0229076
0.022543
0.022125
0.0217879
0.0225743
0.0235335
0.0247557
0.0262457
0.0281089
0.137923
0.138576
0.110643
0.0786439
0.0909168
0.0625428
0.0269357
0.0248484
0.0233145
0.0229314
0.0227246
0.0219328
0.0206775
0.0218859
0.0224787
0.0229963
0.023662
0.0255263
0.0258608
0.0270922
0.0340702
0.0232573
0.0233463
0.0224781
0.0227113
0.109149
0.0512314
0.105307
0.143709
0.0674641
0.0906276
0.0954799
0.0271963
0.0240046
0.0230163
0.0227005
0.0218283
0.0215137
0.0220117
0.0230885
0.0234049
0.0266225
0.0296681
0.0347662
0.0378536
0.0294604
0.0240209
0.0241018
0.0233198
0.0339121
0.0378255
0.0434264
0.0675465
0.0611887
0.0572981
0.0818942
0.130818
0.0551199
0.023025
0.0250725
0.0260571
0.023787
0.0231476
0.0218155
0.0214585
0.0213861
0.0216463
0.0229392
0.0235906
0.024762
0.032058
0.0443831
0.0261453
0.0244828
0.0246125
0.0246499
0.0244212
0.0248361
0.0263848
0.0549775
0.073848
0.154664
0.027272
0.0253081
0.0235528
0.0232038
0.022843
0.0238038
0.0240281
0.0243404
0.026912
0.0285095
0.045893
0.0479409
0.0372157
0.0251702
0.0251927
0.0248492
0.031185
0.0340619
0.0901193
0.222128
0.104959
0.0811327
0.0594259
0.0580699
0.242475
0.14241
0.0737877
0.0272586
0.0239396
0.0235023
0.0228458
0.0222519
0.02248
0.023226
0.0259457
0.0266993
0.0319126
0.0369335
0.0260226
0.0257676
0.0419652
0.18905
0.24991
0.0228246
0.0266852
0.0248298
0.0237928
0.0236517
0.0235981
0.0230191
0.0227966
0.0244511
0.0248497
0.025616
0.0286703
0.0440079
0.0471455
0.0366338
0.0323404
0.0291208
0.0263538
0.0261889
0.0263195
0.026402
0.028171
0.0310092
0.0384248
0.0706529
0.0677619
0.214281
0.087807
0.10189
0.130552
0.0692866
0.0240529
0.0263621
0.0259354
0.0241959
0.0238794
0.0237696
0.0232723
0.0240247
0.0257275
0.0254513
0.0270959
0.0306034
0.034802
0.0508893
0.0267993
0.0270899
0.0279267
0.0306641
0.0335142
0.0565901
0.0754788
0.0770276
0.144542
0.0272732
0.02478
0.0240967
0.024161
0.0254937
0.0524502
0.0277089
0.0273467
0.0272855
0.0275597
0.0358071
0.0375682
0.0427622
0.180202
0.0681601
0.154788
0.105429
0.113703
0.0225053
0.0267644
0.0265159
0.0253764
0.0244793
0.0244962
0.0249331
0.027228
0.0266557
0.0270726
0.0277154
0.0286847
0.0295451
0.0310448
0.0390375
0.0428336
0.0479329
0.0345632
0.0293762
0.0275223
0.0286876
0.0314478
0.0929443
0.0709817
0.106203
0.226511
0.317083
0.0935121
0.0248866
0.027023
0.0248079
0.0249417
0.0251805
0.0277598
0.0344006
0.0371865
0.0280584
0.027886
0.0309163
0.0317835
0.0341686
0.0352051
0.0359826
0.0699831
0.238971
0.163999
0.115249
0.0760507
0.155468
0.0253282
0.0247742
0.0246983
0.028223
0.0288087
0.0280749
0.0486373
0.0540015
0.0443204
0.0329774
0.0289742
0.0285922
0.0293571
0.0381654
0.0952613
0.106106
0.179587
0.0222122
0.0259977
0.0268885
0.0265546
0.0252274
0.0261099
0.0263086
0.0281252
0.029735
0.0288775
0.0297827
0.0325769
0.033926
0.0377434
0.0409509
0.0541773
0.0393817
0.0305854
0.0288289
0.0316159
0.0326783
0.0359657
0.0396822
0.0471779
0.239529
0.0821581
0.0901336
0.142889
0.0261773
0.027092
0.0277243
0.0293274
0.0374762
0.0289451
0.0289354
0.0362342
0.0391928
0.0398539
0.0395253
0.0391662
0.0421845
0.122107
0.177543
0.0248968
0.0263247
0.0258613
0.0254801
0.0253476
0.0263941
0.0273446
0.0307494
0.0313421
0.0305265
0.0326911
0.0570216
0.0507885
0.0327748
0.0292786
0.0315867
0.0540206
0.0767869
0.157466
0.149096
0.338607
0.0231993
0.0257143
0.0282208
0.0320578
0.0307145
0.0314367
0.0350111
0.0379433
0.0443438
0.0522843
0.0383508
0.0309023
0.0365654
0.0395182
0.0404606
0.107463
0.0886837
0.0893827
0.110887
0.143264
0.147824
0.103767
0.0275474
0.0294452
0.0305203
0.0416648
0.0454446
0.0306688
0.0297573
0.0297374
0.0352277
0.0457991
0.0442728
0.0436196
0.0955935
0.0220051
0.0243102
0.0261202
0.026595
0.0267688
0.0268664
0.0268954
0.0267694
0.0263554
0.0260878
0.0268833
0.0288691
0.0323787
0.0316173
0.0311788
0.0334693
0.0380624
0.0440785
0.0564674
0.0328219
0.0295264
0.0339493
0.0464088
0.0440085
0.137891
0.0984517
0.29486
0.239018
0.0264035
0.0325533
0.0314821
0.0323123
0.046252
0.0497781
0.0568423
0.0498916
0.031086
0.0462293
0.0515509
0.0428567
0.0597762
0.238824
0.11275
0.0977791
0.0233396
0.0269156
0.0274126
0.0305468
0.0315804
0.0334939
0.0352073
0.0376892
0.0358943
0.0303517
0.0301539
0.0250003
0.0266739
0.0278653
0.0282374
0.0272491
0.0266536
0.0274206
0.0284526
0.0294472
0.0326074
0.0332592
0.0331516
0.0318086
0.0310378
0.0331957
0.0411129
0.0439493
0.046723
0.0294748
0.0295993
0.0414366
0.0531934
0.0483885
0.0515027
0.27778
0.140258
0.0223096
0.0261476
0.0309542
0.0493993
0.0527911
0.0407487
0.0316533
0.0334613
0.037073
0.0493075
0.0568862
0.0604819
0.0464746
0.202679
0.111548
0.123033
0.18029
0.151273
0.0242375
0.0274628
0.0281178
0.0286896
0.0267886
0.0352716
0.0384694
0.0486904
0.0552003
0.0529725
0.0461951
0.0296455
0.0652011
0.0470785
0.0595815
0.0784245
0.131752
0.105774
0.116696
0.151325
0.200791
0.0269231
0.029223
0.0281192
0.0278593
0.0292921
0.0302158
0.0312804
0.0320437
0.0326763
0.0329481
0.0325847
0.0318112
0.0305489
0.0308135
0.0324986
0.0447487
0.0335426
0.0291116
0.0301051
0.0445454
0.0590499
0.0578358
0.184448
0.231612
0.0226127
0.0255517
0.0299671
0.0269263
0.0269406
0.0491299
0.0506984
0.0321226
0.0401362
0.0674112
0.141227
0.118734
0.13306
0.0268298
0.0277064
0.0283375
0.0291758
0.0358333
0.036762
0.0305924
0.0289337
0.0359973
0.0536832
0.0509968
0.109152
0.0290983
0.027891
0.0267035
0.0271641
0.0288237
0.0297731
0.0321712
0.0313028
0.0300161
0.0291282
0.0292527
0.041028
0.0491621
0.0511998
0.0497793
0.0451541
0.0297201
0.0585002
0.0610329
0.0963224
0.283233
0.222925
0.0229903
0.0250139
0.0300205
0.0307603
0.0314946
0.032964
0.0472204
0.0482404
0.0396431
0.0310018
0.0288526
0.0332825
0.0430928
0.0699507
0.0811252
0.0654607
0.0523813
0.0733438
0.120043
0.408279
0.200391
0.0289118
0.0273381
0.0299948
0.0309307
0.0298039
0.0280321
0.0479857
0.0348441
0.0288988
0.02838
0.0379236
0.135313
0.0280181
0.0310021
0.0294598
0.0263901
0.0282517
0.030314
0.0309483
0.0283854
0.0295767
0.0415908
0.0431533
0.0394767
0.0872269
0.0601184
0.240911
0.109134
0.165716
0.0256393
0.0273149
0.0287038
0.0300202
0.0309644
0.0281528
0.026948
0.027299
0.031824
0.0354677
0.0474962
0.0451949
0.0313173
0.0294561
0.0283743
0.0306344
0.0332231
0.0600806
0.0579093
0.131946
0.117405
0.188188
0.0298158
0.028943
0.0273163
0.0442304
0.0445077
0.0347165
0.0397667
0.0824801
0.0518369
0.0704569
0.156436
0.0240579
0.0293891
0.031285
0.0293171
0.0259911
0.0263123
0.0274495
0.0281565
0.0288393
0.0277109
0.0269494
0.0265033
0.028433
0.0385139
0.0428552
0.0398168
0.0534732
0.0931274
0.132437
0.141214
0.0282632
0.0291831
0.0308441
0.0292207
0.0286868
0.0427294
0.0344832
0.0311619
0.0294332
0.0282465
0.0275509
0.0275729
0.0284233
0.0308666
0.0354582
0.0835893
0.0801047
0.113194
0.196528
0.0270643
0.0296284
0.0310877
0.0262411
0.0264427
0.0290374
0.0277464
0.0261817
0.0300754
0.0395945
0.0425803
0.0437835
0.0402671
0.0440397
0.0597871
0.0580752
0.0298306
0.0302083
0.0280572
0.0260536
0.0262601
0.033895
0.0393178
0.038568
0.0367843
0.0519943
0.0953179
0.143149
0.193462
0.124425
0.263337
0.182144
0.0261174
0.0295018
0.0308104
0.0316473
0.0324209
0.0286716
0.0289797
0.0283658
0.027195
0.0316191
0.0296702
0.0270633
0.0272187
0.0294684
0.0577689
0.0841751
0.102078
0.102999
0.146153
0.362948
0.190057
0.0312494
0.0310477
0.0265626
0.0269172
0.0274476
0.028246
0.0289736
0.0277897
0.0270227
0.0263243
0.0258758
0.0391152
0.0368682
0.0367242
0.0276824
0.0353323
0.0412516
0.16004
0.387001
0.23264
0.029943
0.0335453
0.0302443
0.027962
0.0285152
0.0331132
0.0395302
0.0268805
0.0276606
0.0314395
0.0777383
0.107012
0.0617957
0.0527863
0.177493
0.213565
0.140363
0.032452
0.0275254
0.0295884
0.0290251
0.0263323
0.0366023
0.0385527
0.0353742
0.0338585
0.0314494
0.0290513
0.0539979
0.110634
0.0642897
0.129119
0.0295454
0.0337558
0.0346371
0.0341707
0.0278194
0.0286512
0.0293917
0.0298472
0.0276006
0.0262952
0.0363501
0.0263798
0.0287618
0.043019
0.0964792
0.0530137
0.213196
0.103279
0.0333881
0.0341509
0.0337719
0.0343407
0.0358615
0.0324093
0.0297312
0.0265215
0.0278574
0.0334512
0.0368219
0.037843
0.0334966
0.0313832
0.0273597
0.0270567
0.0318599
0.0367026
0.0817162
0.100304
0.0354222
0.028795
0.0289217
0.0301451
0.029476
0.0274956
0.0267737
0.0302865
0.0363378
0.0336334
0.0321949
0.0293725
0.0281212
0.0266233
0.0262996
0.0666297
0.0504055
0.124071
0.0929779
0.106417
0.206283
0.162873
0.186855
0.0322232
0.0297713
0.030251
0.0307186
0.0310625
0.0534462
0.0846768
0.0508067
0.0559848
0.0925147
0.130809
0.0352338
0.0359279
0.0371551
0.0378984
0.037102
0.0314846
0.0301858
0.0292332
0.0310915
0.0335586
0.036024
0.0340359
0.0305906
0.0271024
0.0275682
0.0338301
0.0422091
0.114578
0.0815576
0.0640441
0.18433
0.130186
0.109678
0.158678
0.111456
0.0373815
0.0375645
0.0366795
0.0303013
0.0303857
0.0278387
0.0272439
0.0275096
0.0352751
0.0324958
0.0316812
0.028709
0.0278304
0.0266123
0.0264996
0.0299932
0.0495174
0.0867432
0.10855
0.187565
0.0348355
0.0315649
0.0321008
0.0323907
0.0323072
0.0316048
0.0308904
0.0292936
0.0344516
0.0307656
0.0296184
0.0679035
0.108417
0.10106
0.0634869
0.0876112
0.243708
0.0347919
0.0375018
0.0389568
0.0333614
0.0318236
0.0282126
0.0297406
0.0317623
0.0343047
0.0288841
0.0279896
0.0343371
0.0404449
0.0568842
0.279692
0.163669
0.130752
0.0374317
0.0390434
0.0390932
0.0403075
0.0377955
0.0313365
0.027801
0.0324233
0.030974
0.0290067
0.0284574
0.0273496
0.030457
0.0699727
0.0492169
0.0514716
0.123327
0.189729
0.174661
0.0798182
0.0391363
0.0334369
0.0331716
0.0342458
0.0345275
0.0338481
0.0275477
0.032086
0.030429
0.03017
0.0279873
0.0579921
0.0910835
0.0832887
0.160546
0.0361254
0.0398322
0.0359444
0.0345247
0.0337093
0.0300568
0.0275704
0.0298681
0.032131
0.0319287
0.0306833
0.0305836
0.0307515
0.0293172
0.0366108
0.0459785
0.0467441
0.0918182
0.0779617
0.0948028
0.175113
0.0897802
0.0409394
0.0416073
0.0430862
0.041434
0.0391872
0.0351701
0.0351995
0.0363677
0.036386
0.0361156
0.0328784
0.0282129
0.030848
0.0304237
0.0313211
0.0303659
0.0586451
0.0474054
0.122211
0.119613
0.291378
0.148635
0.0391021
0.0417785
0.043893
0.0372296
0.0364043
0.0278948
0.0295048
0.0313149
0.0327313
0.0295809
0.0293287
0.0338128
0.115244
0.0497595
0.0559733
0.0689731
0.0938745
0.145499
0.104891
0.0677722
0.0976364
0.211668
0.12629
0.0421842
0.0303302
0.0329175
0.0392657
0.0549907
0.072641
0.0959318
0.092668
0.0735917
0.0621348
0.150973
0.0955456
0.0447906
0.0478008
0.0467029
0.0437261
0.0414155
0.0398407
0.0389085
0.0390986
0.0396333
0.0401755
0.0402597
0.0396303
0.0382849
0.0359348
0.033618
0.03121
0.0290886
0.0272695
0.0269221
0.0277051
0.0296273
0.031303
0.0347721
0.0305359
0.0315922
0.0487168
0.0736239
0.0703578
0.0382614
0.028524
0.0302168
0.0308482
0.0341433
0.0366611
0.0325968
0.0470142
0.0579873
0.130476
0.0873741
0.161469
0.0419871
0.0442582
0.047
0.0495999
0.0514624
0.0293279
0.0375064
0.0358407
0.0405154
0.0853083
0.107867
0.0478181
0.155604
0.158311
0.279246
0.15772
0.142816
0.125838
0.0443397
0.0441859
0.0452117
0.0458085
0.0440694
0.039455
0.0300548
0.0272522
0.0269549
0.0285029
0.0302504
0.0352185
0.033106
0.0335116
0.0362559
0.0563695
0.0458704
0.0504582
0.0990545
0.107898
0.0670707
0.0525117
0.0512577
0.0441576
0.0376136
0.0339766
0.0274784
0.0316561
0.0336751
0.0388242
0.0416835
0.073945
0.104246
0.062405
0.097582
0.112067
0.0713846
0.0513096
0.050012
0.0551827
0.068401
0.253059
0.0894222
0.0730292
0.0405467
0.0433165
0.0594234
0.0495077
0.0486674
0.0499124
0.029876
0.0298624
0.0426452
0.0426755
0.0392995
0.0365345
0.0346407
0.0642138
0.0526612
0.075438
0.254736
0.048773
0.0597256
0.0496819
0.0275677
0.0290418
0.0373904
0.0504275
0.0986559
0.120408
0.0456389
0.0753794
0.121626
0.136065
0.0535594
0.129355
0.198308
0.0640078
0.0559602
0.0547108
0.0456334
0.0379229
0.0287483
0.0316355
0.0360043
0.0418286
0.0372659
0.0411434
0.0626682
0.0872156
0.0814077
0.0468062
0.0447588
0.0502138
0.168433
0.133241
0.0836335
0.0426252
0.0620137
0.0537361
0.0325772
0.0285571
0.0291419
0.0306513
0.0347128
0.047616
0.0430716
0.0398762
0.0469473
0.0628527
0.0405886
0.056182
0.20062
0.132832
0.105797
0.0556221
0.0577222
0.0592634
0.0562354
0.0377103
0.029172
0.0414051
0.0687367
0.0558102
0.0850757
0.0856163
0.0429152
0.07179
0.06291
0.0673299
0.0590752
0.0562827
0.0557047
0.0583528
0.0600096
0.0329728
0.0349556
0.0506021
0.0405856
0.0421646
0.0782347
0.115341
0.0464082
0.0580981
0.114167
0.139455
0.0811741
0.0526686
0.073118
0.0743513
0.0632077
0.0568273
0.0348395
0.0320094
0.0392853
0.0559944
0.0513242
0.0473382
0.0457032
0.11908
0.133693
0.0465759
0.0364237
0.038347
0.0675814
0.0864458
0.0691438
0.0517599
0.0404391
0.0331437
0.0316393
0.0312907
0.0444891
0.0572801
0.106926
0.121792
0.129827
0.0441738
0.139936
0.123192
0.0615823
0.0377916
0.035168
0.0401032
0.0456149
0.0557001
0.107989
0.14972
0.13138
0.0472463
0.0759546
0.0654773
0.0654413
0.0328437
0.0450204
0.0944512
0.0566065
0.0628242
0.0859034
0.124517
0.151509
0.167249
0.208362
0.0835205
0.0498816
0.0621006
0.0351311
0.0370822
0.0485449
0.0553783
0.0614048
0.0545806
0.075516
0.0460087
0.0523485
0.0723879
0.0888093
0.0461192
0.0340117
0.0467773
0.18617
0.104107
0.0715195
0.0603368
0.0575531
0.0664431
0.0822436
0.0591668
0.0686393
0.0625495
0.0490279
0.0402886
0.0407084
0.0440432
0.0647419
0.0510575
0.0917374
0.0436987
0.0873095
0.0351929
0.0610377
0.208896
0.0655256
0.0828328
0.059061
0.0564825
0.0648484
0.0690959
0.0373431
0.0354955
0.0358306
0.0675033
0.0654221
0.0316324
0.0345891
0.0504405
0.0695339
0.165075
0.0541111
0.0535889
0.0743802
0.0402812
0.0577189
0.0523626
0.0511948
0.0584888
0.0676344
0.0540087
0.0416633
0.0444047
0.0967146
0.125665
0.041216
0.0379566
0.0416391
0.171822
0.0601983
0.0485134
0.0444379
0.0600204
0.0686688
0.111307
0.125869
0.0435433
0.0464546
0.113702
0.033456
0.0780027
0.191824
0.0498391
0.0691271
0.0812011
0.066779
0.0575318
0.0659019
0.0691729
0.0430281
0.0403377
0.0418793
0.0527727
0.139763
0.0953779
0.0510853
0.0663812
0.105952
0.0517074
0.0306566
0.0309714
0.0345491
0.0436661
0.0949603
0.11523
0.126649
0.13242
0.0760767
0.0680068
0.0546462
0.0535814
0.0712486
0.0424954
0.0727936
0.0557461
0.0564882
0.0884484
0.0500236
0.0403165
0.0773519
0.0373603
0.0535542
0.0619511
0.124659
0.107345
0.0852118
0.0597387
0.0628157
0.0812337
0.0607963
0.0594553
0.0484426
0.0532011
0.066394
0.039477
0.0527771
0.0644653
0.0312577
0.0296441
0.0387031
0.111329
0.119725
0.0744605
0.0955461
0.0948182
0.0569134
0.0687341
0.0647115
0.0764411
0.041649
0.11538
0.0789114
0.0435149
0.0342512
0.0433786
0.0733867
0.0933729
0.119001
0.0523388
0.0534941
0.0719343
0.0547965
0.0489689
0.0688964
0.0857357
0.0580225
0.143933
0.0456959
0.0435103
0.0538531
0.0588668
0.0342345
0.0295486
0.031626
0.134328
0.0706897
0.085868
0.068969
0.0615987
0.0691114
0.0526456
0.0958906
0.0574491
0.0402873
0.0379455
0.0442515
0.076269
0.0296708
0.0390673
0.125281
0.143442
0.0593804
0.0517453
0.0578502
0.0662048
0.0718933
0.0997591
0.0373797
0.0461819
0.0514105
0.0566499
0.0965844
0.0469911
0.0432426
0.0502577
0.088937
0.127185
0.160369
0.119093
0.085078
0.0539607
0.057072
0.0657474
0.118344
0.0479724
0.0382228
0.0859087
0.038403
0.0329162
0.0309641
0.0330742
0.0356095
0.090848
0.105608
0.0685574
0.0546478
0.0795531
0.106921
0.0763665
0.0585063
0.0565948
0.068714
0.0617891
0.0690144
0.090311
0.0619636
0.0686915
0.0409557
0.0356359
0.0361192
0.0386426
0.0962802
0.0634012
0.0288255
0.0282946
0.0291385
0.0431164
0.0647067
0.0739575
0.0821092
0.124446
0.106394
0.114152
0.121037
0.078012
0.105847
0.0664192
0.0507138
0.0643774
0.0697801
0.0718964
0.0667734
0.0956007
0.0579814
0.072678
0.0358322
0.0417952
0.0545834
0.0920209
0.0732199
0.0386696
0.046866
0.0536439
0.0877326
0.143792
0.0539792
0.0590272
0.0728566
0.129092
0.0351455
0.0375796
0.0421468
0.0605858
0.045541
0.0303615
0.0297032
0.033743
0.0359711
0.102626
0.125706
0.0944276
0.0572527
0.0524495
0.0516692
0.0757043
0.0855367
0.0594425
0.0887225
0.0331758
0.033417
0.0781934
0.0794312
0.0355388
0.0279624
0.0277794
0.0379318
0.0696193
0.0846326
0.0986897
0.0549224
0.0703928
0.0727695
0.0969008
0.0612161
0.12667
0.0331642
0.0330504
0.0443549
0.0556499
0.0315361
0.0375743
0.0391822
0.0434115
0.0495076
0.063465
0.0951645
0.112588
0.0635667
0.0922617
0.107886
0.0739505
0.102437
0.101441
0.0611111
0.047465
0.0363649
0.0312666
0.0338424
0.0355962
0.047217
0.0642907
0.0754449
0.0644281
0.0440877
0.0283512
0.0270483
0.055915
0.0584397
0.0598291
0.0837851
0.0873729
0.0887463
0.0750675
0.0770557
0.0600608
0.077674
0.0838121
0.112388
0.0916624
0.0725785
0.0559471
0.0673403
0.031199
0.0332711
0.0272741
0.0285191
0.0337994
0.0347889
0.0349297
0.0616538
0.0900458
0.114973
0.0902182
0.0949591
0.0844275
0.0516191
0.0652358
0.0523219
0.0546009
0.0579583
0.0747356
0.0384809
0.0294276
0.0291085
0.0292535
0.0338191
0.0660817
0.0302354
0.0396779
0.0467281
0.0542839
0.0680805
0.0792418
0.0843171
0.0938464
0.0663746
0.125498
0.0571426
0.0531123
0.0525721
0.104605
0.0479995
0.0329307
0.0301424
0.0279382
0.0291285
0.030318
0.0466888
0.058316
0.0601153
0.0470747
0.0396182
0.0294338
0.0272085
0.0262635
0.0327284
0.0331524
0.0483344
0.10372
0.0743835
0.102374
0.11255
0.0714871
0.114459
0.0272718
0.0324596
0.0397513
0.0598941
0.0334405
0.0260781
0.0302869
0.0317297
0.0323423
0.0332687
0.0437892
0.0453729
0.0877792
0.079408
0.0513574
0.0669383
0.0950052
0.0713615
0.0545967
0.0966082
0.102108
0.0561109
0.0346285
0.0262962
0.0339761
0.048071
0.0281498
0.0303655
0.034724
0.0372826
0.0417968
0.0441813
0.0471598
0.0540806
0.0669558
0.0691367
0.0749139
0.0875072
0.0875034
0.0692987
0.0542497
0.0460187
0.130244
0.116535
0.0522699
0.0523088
0.0592101
0.0562595
0.0834195
0.0402093
0.0263576
0.0252018
0.0258847
0.0276352
0.0404437
0.0518656
0.0518671
0.0477419
0.0432924
0.0378323
0.0292536
0.026454
0.02645
0.0299638
0.0371014
0.0403709